MODEL 1
REMARK VINA RESULT:    -3.896      0.000      0.000
REMARK INTER + INTRA:          -5.573
REMARK INTER:                  -5.262
REMARK INTRA:                  -0.311
REMARK UNBOUND:                -0.311
REMARK  Name = 
REMARK  10 active torsions:
REMARK  status: ('A' for Active; 'I' for Inactive)
REMARK    1  A    between atoms: C_1  and  C_2
REMARK    2  A    between atoms: C_5  and  N_8
REMARK    3  A    between atoms: N_8  and  C_9
REMARK    4  A    between atoms: N_8  and  C_13
REMARK    5  A    between atoms: C_9  and  C_10
REMARK    6  A    between atoms: C_10  and  C_11
REMARK    7  A    between atoms: C_10  and  O_12
REMARK    8  A    between atoms: C_13  and  C_14
REMARK    9  A    between atoms: C_14  and  C_15
REMARK   10  A    between atoms: C_14  and  O_16
REMARK                            x       y       z     vdW  Elec       q    Type
REMARK                         _______ _______ _______ _____ _____    ______ ____
ROOT
ATOM      1  N   UNL     1      -2.498  -7.659  -4.287  0.00  0.00    +0.000 N 
ENDROOT
BRANCH   1   6
ATOM      2  C   UNL     1       3.250  -7.319  -3.862  0.00  0.00    +0.000 C 
ATOM      3  C   UNL     1       1.760  -7.402  -3.997  0.00  0.00    +0.000 A 
ATOM      4  C   UNL     1       0.958  -6.291  -3.755  0.00  0.00    +0.000 A 
ATOM      5  C   UNL     1      -0.440  -6.382  -3.853  0.00  0.00    +0.000 A 
ATOM      6  C   UNL     1      -1.104  -7.581  -4.171  0.00  0.00    +0.000 A 
ATOM      7  C   UNL     1      -0.262  -8.682  -4.411  0.00  0.00    +0.000 A 
ATOM      8  C   UNL     1       1.137  -8.604  -4.318  0.00  0.00    +0.000 A 
ENDBRANCH   1   6
BRANCH   1   9
ATOM      9  C   UNL     1      -3.364  -7.116  -3.213  0.00  0.00    +0.000 C 
BRANCH   9  10
ATOM     10  C   UNL     1      -4.084  -5.809  -3.627  0.00  0.00    +0.000 C 
ATOM     11  C   UNL     1      -3.353  -4.588  -3.080  0.00  0.00    +0.000 C 
BRANCH  10  12
ATOM     12  O   UNL     1      -4.148  -5.686  -5.055  0.00  0.00    +0.000 OA
ATOM     13  H   UNL     1      -4.225  -4.742  -5.273  0.00  0.00    +0.000 HD
ENDBRANCH  10  12
ENDBRANCH   9  10
ENDBRANCH   1   9
BRANCH   1  14
ATOM     14  C   UNL     1      -3.141  -8.682  -5.151  0.00  0.00    +0.000 C 
BRANCH  14  15
ATOM     15  C   UNL     1      -2.984  -8.358  -6.656  0.00  0.00    +0.000 C 
ATOM     16  C   UNL     1      -4.229  -8.682  -7.473  0.00  0.00    +0.000 C 
BRANCH  15  17
ATOM     17  O   UNL     1      -2.661  -6.984  -6.868  0.00  0.00    +0.000 OA
ATOM     18  H   UNL     1      -2.799  -6.555  -6.000  0.00  0.00    +0.000 HD
ENDBRANCH  15  17
ENDBRANCH  14  15
ENDBRANCH   1  14
TORSDOF 7
ENDMDL
MODEL 2
REMARK VINA RESULT:    -2.633     23.636     25.523
REMARK INTER + INTRA:          -3.867
REMARK INTER:                  -3.609
REMARK INTRA:                  -0.258
REMARK UNBOUND:                -0.311
REMARK  Name = 
REMARK  10 active torsions:
REMARK  status: ('A' for Active; 'I' for Inactive)
REMARK    1  A    between atoms: C_1  and  C_2
REMARK    2  A    between atoms: C_5  and  N_8
REMARK    3  A    between atoms: N_8  and  C_9
REMARK    4  A    between atoms: N_8  and  C_13
REMARK    5  A    between atoms: C_9  and  C_10
REMARK    6  A    between atoms: C_10  and  C_11
REMARK    7  A    between atoms: C_10  and  O_12
REMARK    8  A    between atoms: C_13  and  C_14
REMARK    9  A    between atoms: C_14  and  C_15
REMARK   10  A    between atoms: C_14  and  O_16
REMARK                            x       y       z     vdW  Elec       q    Type
REMARK                         _______ _______ _______ _____ _____    ______ ____
ROOT
ATOM      1  N   UNL     1      14.063  11.625 -12.350  0.00  0.00    +0.000 N 
ENDROOT
BRANCH   1   6
ATOM      2  C   UNL     1      17.343  11.531  -7.600  0.00  0.00    +0.000 C 
ATOM      3  C   UNL     1      16.472  11.554  -8.819  0.00  0.00    +0.000 A 
ATOM      4  C   UNL     1      16.142  10.377  -9.483  0.00  0.00    +0.000 A 
ATOM      5  C   UNL     1      15.349  10.407 -10.642  0.00  0.00    +0.000 A 
ATOM      6  C   UNL     1      14.870  11.603 -11.205  0.00  0.00    +0.000 A 
ATOM      7  C   UNL     1      15.221  12.773 -10.506  0.00  0.00    +0.000 A 
ATOM      8  C   UNL     1      16.011  12.757  -9.345  0.00  0.00    +0.000 A 
ENDBRANCH   1   6
BRANCH   1   9
ATOM      9  C   UNL     1      14.141  10.518 -13.334  0.00  0.00    +0.000 C 
BRANCH   9  10
ATOM     10  C   UNL     1      12.904   9.588 -13.289  0.00  0.00    +0.000 C 
ATOM     11  C   UNL     1      13.210   8.242 -13.937  0.00  0.00    +0.000 C 
BRANCH  10  12
ATOM     12  O   UNL     1      12.491   9.345 -11.937  0.00  0.00    +0.000 OA
ATOM     13  H   UNL     1      13.123   9.786 -11.346  0.00  0.00    +0.000 HD
ENDBRANCH  10  12
ENDBRANCH   9  10
ENDBRANCH   1   9
BRANCH   1  14
ATOM     14  C   UNL     1      13.521  12.900 -12.886  0.00  0.00    +0.000 C 
BRANCH  14  15
ATOM     15  C   UNL     1      12.118  13.222 -12.319  0.00  0.00    +0.000 C 
ATOM     16  C   UNL     1      10.984  12.716 -13.202  0.00  0.00    +0.000 C 
BRANCH  15  17
ATOM     17  O   UNL     1      11.938  12.675 -11.013  0.00  0.00    +0.000 OA
ATOM     18  H   UNL     1      12.546  11.909 -10.974  0.00  0.00    +0.000 HD
ENDBRANCH  15  17
ENDBRANCH  14  15
ENDBRANCH   1  14
TORSDOF 7
ENDMDL
MODEL 3
REMARK VINA RESULT:    -2.410     23.600     25.540
REMARK INTER + INTRA:          -3.566
REMARK INTER:                  -3.211
REMARK INTRA:                  -0.355
REMARK UNBOUND:                -0.311
REMARK  Name = 
REMARK  10 active torsions:
REMARK  status: ('A' for Active; 'I' for Inactive)
REMARK    1  A    between atoms: C_1  and  C_2
REMARK    2  A    between atoms: C_5  and  N_8
REMARK    3  A    between atoms: N_8  and  C_9
REMARK    4  A    between atoms: N_8  and  C_13
REMARK    5  A    between atoms: C_9  and  C_10
REMARK    6  A    between atoms: C_10  and  C_11
REMARK    7  A    between atoms: C_10  and  O_12
REMARK    8  A    between atoms: C_13  and  C_14
REMARK    9  A    between atoms: C_14  and  C_15
REMARK   10  A    between atoms: C_14  and  O_16
REMARK                            x       y       z     vdW  Elec       q    Type
REMARK                         _______ _______ _______ _____ _____    ______ ____
ROOT
ATOM      1  N   UNL     1      13.941  12.309 -12.421  0.00  0.00    +0.000 N 
ENDROOT
BRANCH   1   6
ATOM      2  C   UNL     1      13.566   6.660 -13.555  0.00  0.00    +0.000 C 
ATOM      3  C   UNL     1      13.655   8.122 -13.238  0.00  0.00    +0.000 A 
ATOM      4  C   UNL     1      12.585   8.974 -13.491  0.00  0.00    +0.000 A 
ATOM      5  C   UNL     1      12.685  10.348 -13.219  0.00  0.00    +0.000 A 
ATOM      6  C   UNL     1      13.855  10.940 -12.708  0.00  0.00    +0.000 A 
ATOM      7  C   UNL     1      14.915  10.048 -12.463  0.00  0.00    +0.000 A 
ATOM      8  C   UNL     1      14.827   8.672 -12.728  0.00  0.00    +0.000 A 
ENDBRANCH   1   6
BRANCH   1   9
ATOM      9  C   UNL     1      12.929  13.247 -12.964  0.00  0.00    +0.000 C 
BRANCH   9  10
ATOM     10  C   UNL     1      11.721  13.441 -12.015  0.00  0.00    +0.000 C 
ATOM     11  C   UNL     1      10.439  12.915 -12.649  0.00  0.00    +0.000 C 
BRANCH  10  12
ATOM     12  O   UNL     1      11.922  12.745 -10.777  0.00  0.00    +0.000 OA
ATOM     13  H   UNL     1      12.877  12.702 -10.607  0.00  0.00    +0.000 HD
ENDBRANCH  10  12
ENDBRANCH   9  10
ENDBRANCH   1   9
BRANCH   1  14
ATOM     14  C   UNL     1      15.233  12.935 -12.042  0.00  0.00    +0.000 C 
BRANCH  14  15
ATOM     15  C   UNL     1      15.603  12.663 -10.565  0.00  0.00    +0.000 C 
ATOM     16  C   UNL     1      16.994  13.164 -10.193  0.00  0.00    +0.000 C 
BRANCH  15  17
ATOM     17  O   UNL     1      14.665  13.256  -9.668  0.00  0.00    +0.000 OA
ATOM     18  H   UNL     1      15.207  13.608  -8.933  0.00  0.00    +0.000 HD
ENDBRANCH  15  17
ENDBRANCH  14  15
ENDBRANCH   1  14
TORSDOF 7
ENDMDL
MODEL 4
REMARK VINA RESULT:    -2.315     23.654     25.567
REMARK INTER + INTRA:          -3.439
REMARK INTER:                  -3.711
REMARK INTRA:                   0.272
REMARK UNBOUND:                -0.311
REMARK  Name = 
REMARK  10 active torsions:
REMARK  status: ('A' for Active; 'I' for Inactive)
REMARK    1  A    between atoms: C_1  and  C_2
REMARK    2  A    between atoms: C_5  and  N_8
REMARK    3  A    between atoms: N_8  and  C_9
REMARK    4  A    between atoms: N_8  and  C_13
REMARK    5  A    between atoms: C_9  and  C_10
REMARK    6  A    between atoms: C_10  and  C_11
REMARK    7  A    between atoms: C_10  and  O_12
REMARK    8  A    between atoms: C_13  and  C_14
REMARK    9  A    between atoms: C_14  and  C_15
REMARK   10  A    between atoms: C_14  and  O_16
REMARK                            x       y       z     vdW  Elec       q    Type
REMARK                         _______ _______ _______ _____ _____    ______ ____
ROOT
ATOM      1  N   UNL     1      13.651  12.376 -12.441  0.00  0.00    +0.000 N 
ENDROOT
BRANCH   1   6
ATOM      2  C   UNL     1      13.572   6.719 -13.592  0.00  0.00    +0.000 C 
ATOM      3  C   UNL     1      13.583   8.182 -13.270  0.00  0.00    +0.000 A 
ATOM      4  C   UNL     1      12.493   8.989 -13.577  0.00  0.00    +0.000 A 
ATOM      5  C   UNL     1      12.521  10.366 -13.301  0.00  0.00    +0.000 A 
ATOM      6  C   UNL     1      13.637  11.006 -12.732  0.00  0.00    +0.000 A 
ATOM      7  C   UNL     1      14.720  10.159 -12.434  0.00  0.00    +0.000 A 
ATOM      8  C   UNL     1      14.705   8.780 -12.702  0.00  0.00    +0.000 A 
ENDBRANCH   1   6
BRANCH   1   9
ATOM      9  C   UNL     1      14.384  12.876 -11.254  0.00  0.00    +0.000 C 
BRANCH   9  10
ATOM     10  C   UNL     1      15.826  13.333 -11.588  0.00  0.00    +0.000 C 
ATOM     11  C   UNL     1      16.852  12.487 -10.842  0.00  0.00    +0.000 C 
BRANCH  10  12
ATOM     12  O   UNL     1      16.091  13.216 -12.993  0.00  0.00    +0.000 OA
ATOM     13  H   UNL     1      16.602  12.402 -13.136  0.00  0.00    +0.000 HD
ENDBRANCH  10  12
ENDBRANCH   9  10
ENDBRANCH   1   9
BRANCH   1  14
ATOM     14  C   UNL     1      12.583  13.279 -12.942  0.00  0.00    +0.000 C 
BRANCH  14  15
ATOM     15  C   UNL     1      11.196  12.927 -12.352  0.00  0.00    +0.000 C 
ATOM     16  C   UNL     1      11.002  13.443 -10.930  0.00  0.00    +0.000 C 
BRANCH  15  17
ATOM     17  O   UNL     1      10.136  13.440 -13.156  0.00  0.00    +0.000 OA
ATOM     18  H   UNL     1       9.370  13.510 -12.551  0.00  0.00    +0.000 HD
ENDBRANCH  15  17
ENDBRANCH  14  15
ENDBRANCH   1  14
TORSDOF 7
ENDMDL
MODEL 5
REMARK VINA RESULT:    -1.897     23.550     25.428
REMARK INTER + INTRA:          -2.874
REMARK INTER:                  -3.482
REMARK INTRA:                   0.608
REMARK UNBOUND:                -0.311
REMARK  Name = 
REMARK  10 active torsions:
REMARK  status: ('A' for Active; 'I' for Inactive)
REMARK    1  A    between atoms: C_1  and  C_2
REMARK    2  A    between atoms: C_5  and  N_8
REMARK    3  A    between atoms: N_8  and  C_9
REMARK    4  A    between atoms: N_8  and  C_13
REMARK    5  A    between atoms: C_9  and  C_10
REMARK    6  A    between atoms: C_10  and  C_11
REMARK    7  A    between atoms: C_10  and  O_12
REMARK    8  A    between atoms: C_13  and  C_14
REMARK    9  A    between atoms: C_14  and  C_15
REMARK   10  A    between atoms: C_14  and  O_16
REMARK                            x       y       z     vdW  Elec       q    Type
REMARK                         _______ _______ _______ _____ _____    ______ ____
ROOT
ATOM      1  N   UNL     1      13.628  12.347 -12.067  0.00  0.00    +0.000 N 
ENDROOT
BRANCH   1   6
ATOM      2  C   UNL     1      13.502   6.838 -13.788  0.00  0.00    +0.000 C 
ATOM      3  C   UNL     1      13.546   8.273 -13.363  0.00  0.00    +0.000 A 
ATOM      4  C   UNL     1      14.621   8.770 -12.634  0.00  0.00    +0.000 A 
ATOM      5  C   UNL     1      14.642  10.110 -12.212  0.00  0.00    +0.000 A 
ATOM      6  C   UNL     1      13.591  11.007 -12.474  0.00  0.00    +0.000 A 
ATOM      7  C   UNL     1      12.522  10.471 -13.215  0.00  0.00    +0.000 A 
ATOM      8  C   UNL     1      12.489   9.134 -13.645  0.00  0.00    +0.000 A 
ENDBRANCH   1   6
BRANCH   1   9
ATOM      9  C   UNL     1      14.109  12.699 -10.710  0.00  0.00    +0.000 C 
BRANCH   9  10
ATOM     10  C   UNL     1      15.536  13.300 -10.716  0.00  0.00    +0.000 C 
ATOM     11  C   UNL     1      16.499  12.430  -9.917  0.00  0.00    +0.000 C 
BRANCH  10  12
ATOM     12  O   UNL     1      16.042  13.410 -12.054  0.00  0.00    +0.000 OA
ATOM     13  H   UNL     1      16.442  12.558 -12.296  0.00  0.00    +0.000 HD
ENDBRANCH  10  12
ENDBRANCH   9  10
ENDBRANCH   1   9
BRANCH   1  14
ATOM     14  C   UNL     1      12.759  13.368 -12.706  0.00  0.00    +0.000 C 
BRANCH  14  15
ATOM     15  C   UNL     1      11.362  13.443 -12.044  0.00  0.00    +0.000 C 
ATOM     16  C   UNL     1      10.306  12.626 -12.780  0.00  0.00    +0.000 C 
BRANCH  15  17
ATOM     17  O   UNL     1      11.396  13.001 -10.688  0.00  0.00    +0.000 OA
ATOM     18  H   UNL     1      10.654  12.368 -10.610  0.00  0.00    +0.000 HD
ENDBRANCH  15  17
ENDBRANCH  14  15
ENDBRANCH   1  14
TORSDOF 7
ENDMDL
MODEL 6
REMARK VINA RESULT:    -1.527     23.430     25.298
REMARK INTER + INTRA:          -2.373
REMARK INTER:                  -3.615
REMARK INTRA:                   1.241
REMARK UNBOUND:                -0.311
REMARK  Name = 
REMARK  10 active torsions:
REMARK  status: ('A' for Active; 'I' for Inactive)
REMARK    1  A    between atoms: C_1  and  C_2
REMARK    2  A    between atoms: C_5  and  N_8
REMARK    3  A    between atoms: N_8  and  C_9
REMARK    4  A    between atoms: N_8  and  C_13
REMARK    5  A    between atoms: C_9  and  C_10
REMARK    6  A    between atoms: C_10  and  C_11
REMARK    7  A    between atoms: C_10  and  O_12
REMARK    8  A    between atoms: C_13  and  C_14
REMARK    9  A    between atoms: C_14  and  C_15
REMARK   10  A    between atoms: C_14  and  O_16
REMARK                            x       y       z     vdW  Elec       q    Type
REMARK                         _______ _______ _______ _____ _____    ______ ____
ROOT
ATOM      1  N   UNL     1      14.635  10.185 -12.822  0.00  0.00    +0.000 N 
ENDROOT
BRANCH   1   6
ATOM      2  C   UNL     1       9.869  13.443 -12.804  0.00  0.00    +0.000 C 
ATOM      3  C   UNL     1      11.110  12.604 -12.832  0.00  0.00    +0.000 A 
ATOM      4  C   UNL     1      11.057  11.261 -13.191  0.00  0.00    +0.000 A 
ATOM      5  C   UNL     1      12.219  10.472 -13.187  0.00  0.00    +0.000 A 
ATOM      6  C   UNL     1      13.477  10.972 -12.805  0.00  0.00    +0.000 A 
ATOM      7  C   UNL     1      13.494  12.334 -12.451  0.00  0.00    +0.000 A 
ATOM      8  C   UNL     1      12.340  13.135 -12.453  0.00  0.00    +0.000 A 
ENDBRANCH   1   6
BRANCH   1   9
ATOM      9  C   UNL     1      14.530   8.710 -12.925  0.00  0.00    +0.000 C 
BRANCH   9  10
ATOM     10  C   UNL     1      13.251   8.250 -13.669  0.00  0.00    +0.000 C 
ATOM     11  C   UNL     1      13.487   8.190 -15.173  0.00  0.00    +0.000 C 
BRANCH  10  12
ATOM     12  O   UNL     1      12.842   6.947 -13.231  0.00  0.00    +0.000 OA
ATOM     13  H   UNL     1      11.879   6.880 -13.342  0.00  0.00    +0.000 HD
ENDBRANCH  10  12
ENDBRANCH   9  10
ENDBRANCH   1   9
BRANCH   1  14
ATOM     14  C   UNL     1      15.911  10.681 -12.244  0.00  0.00    +0.000 C 
BRANCH  14  15
ATOM     15  C   UNL     1      15.902  10.649 -10.697  0.00  0.00    +0.000 C 
ATOM     16  C   UNL     1      17.028   9.807 -10.109  0.00  0.00    +0.000 C 
BRANCH  15  17
ATOM     17  O   UNL     1      15.995  11.960 -10.142  0.00  0.00    +0.000 OA
ATOM     18  H   UNL     1      16.137  11.820  -9.184  0.00  0.00    +0.000 HD
ENDBRANCH  15  17
ENDBRANCH  14  15
ENDBRANCH   1  14
TORSDOF 7
ENDMDL
MODEL 7
REMARK VINA RESULT:    -1.498      1.367      2.022
REMARK INTER + INTRA:          -2.334
REMARK INTER:                  -2.977
REMARK INTRA:                   0.642
REMARK UNBOUND:                -0.311
REMARK  Name = 
REMARK  10 active torsions:
REMARK  status: ('A' for Active; 'I' for Inactive)
REMARK    1  A    between atoms: C_1  and  C_2
REMARK    2  A    between atoms: C_5  and  N_8
REMARK    3  A    between atoms: N_8  and  C_9
REMARK    4  A    between atoms: N_8  and  C_13
REMARK    5  A    between atoms: C_9  and  C_10
REMARK    6  A    between atoms: C_10  and  C_11
REMARK    7  A    between atoms: C_10  and  O_12
REMARK    8  A    between atoms: C_13  and  C_14
REMARK    9  A    between atoms: C_14  and  C_15
REMARK   10  A    between atoms: C_14  and  O_16
REMARK                            x       y       z     vdW  Elec       q    Type
REMARK                         _______ _______ _______ _____ _____    ______ ____
ROOT
ATOM      1  N   UNL     1      -1.734  -7.359  -4.123  0.00  0.00    +0.000 N 
ENDROOT
BRANCH   1   6
ATOM      2  C   UNL     1       4.030  -7.675  -4.177  0.00  0.00    +0.000 C 
ATOM      3  C   UNL     1       2.534  -7.601  -4.139  0.00  0.00    +0.000 A 
ATOM      4  C   UNL     1       1.755  -8.682  -4.537  0.00  0.00    +0.000 A 
ATOM      5  C   UNL     1       0.353  -8.597  -4.528  0.00  0.00    +0.000 A 
ATOM      6  C   UNL     1      -0.336  -7.431  -4.148  0.00  0.00    +0.000 A 
ATOM      7  C   UNL     1       0.484  -6.358  -3.750  0.00  0.00    +0.000 A 
ATOM      8  C   UNL     1       1.886  -6.431  -3.752  0.00  0.00    +0.000 A 
ENDBRANCH   1   6
BRANCH   1   9
ATOM      9  C   UNL     1      -2.513  -8.311  -3.294  0.00  0.00    +0.000 C 
BRANCH   9  10
ATOM     10  C   UNL     1      -4.031  -8.005  -3.296  0.00  0.00    +0.000 C 
ATOM     11  C   UNL     1      -4.724  -8.682  -2.119  0.00  0.00    +0.000 C 
BRANCH  10  12
ATOM     12  O   UNL     1      -4.272  -6.595  -3.203  0.00  0.00    +0.000 OA
ATOM     13  H   UNL     1      -4.268  -6.350  -2.262  0.00  0.00    +0.000 HD
ENDBRANCH  10  12
ENDBRANCH   9  10
ENDBRANCH   1   9
BRANCH   1  14
ATOM     14  C   UNL     1      -2.492  -6.739  -5.239  0.00  0.00    +0.000 C 
BRANCH  14  15
ATOM     15  C   UNL     1      -2.563  -7.661  -6.480  0.00  0.00    +0.000 C 
ATOM     16  C   UNL     1      -3.808  -8.541  -6.503  0.00  0.00    +0.000 C 
BRANCH  15  17
ATOM     17  O   UNL     1      -2.529  -6.913  -7.695  0.00  0.00    +0.000 OA
ATOM     18  H   UNL     1      -1.918  -6.170  -7.517  0.00  0.00    +0.000 HD
ENDBRANCH  15  17
ENDBRANCH  14  15
ENDBRANCH   1  14
TORSDOF 7
ENDMDL
