MODEL 1
REMARK VINA RESULT:    -4.701      0.000      0.000
REMARK INTER + INTRA:          -5.157
REMARK INTER:                  -5.113
REMARK INTRA:                  -0.044
REMARK UNBOUND:                -0.044
REMARK  Name = 
REMARK  3 active torsions:
REMARK  status: ('A' for Active; 'I' for Inactive)
REMARK    1  A    between atoms: C_1  and  O_2
REMARK    2  A    between atoms: O_2  and  C_3
REMARK    3  A    between atoms: C_8  and  O_9
REMARK                            x       y       z     vdW  Elec       q    Type
REMARK                         _______ _______ _______ _____ _____    ______ ____
ROOT
ATOM      1  C   UNL     1      -2.008  -8.482  -4.782  0.00  0.00    +0.000 A 
ATOM      2  C   UNL     1      -2.618  -8.282  -3.545  0.00  0.00    +0.000 A 
ATOM      3  C   UNL     1      -4.003  -8.089  -3.471  0.00  0.00    +0.000 A 
ATOM      4  C   UNL     1      -4.781  -8.095  -4.630  0.00  0.00    +0.000 A 
ATOM      5  C   UNL     1      -4.179  -8.295  -5.870  0.00  0.00    +0.000 A 
ATOM      6  C   UNL     1      -2.805  -8.485  -5.934  0.00  0.00    +0.000 A 
ENDROOT
BRANCH   1   8
ATOM      7  C   UNL     1       0.228  -7.920  -4.204  0.00  0.00    +0.000 C 
ATOM      8  O   UNL     1      -0.668  -8.682  -5.004  0.00  0.00    +0.000 OA
ENDBRANCH   1   8
BRANCH   6   9
ATOM      9  O   UNL     1      -2.236  -8.680  -7.164  0.00  0.00    +0.000 OA
ATOM     10  H   UNL     1      -2.569  -9.550  -7.457  0.00  0.00    +0.000 HD
ENDBRANCH   6   9
TORSDOF 2
ENDMDL
MODEL 2
REMARK VINA RESULT:    -4.585      2.084      3.392
REMARK INTER + INTRA:          -5.031
REMARK INTER:                  -4.979
REMARK INTRA:                  -0.052
REMARK UNBOUND:                -0.044
REMARK  Name = 
REMARK  3 active torsions:
REMARK  status: ('A' for Active; 'I' for Inactive)
REMARK    1  A    between atoms: C_1  and  O_2
REMARK    2  A    between atoms: O_2  and  C_3
REMARK    3  A    between atoms: C_8  and  O_9
REMARK                            x       y       z     vdW  Elec       q    Type
REMARK                         _______ _______ _______ _____ _____    ______ ____
ROOT
ATOM      1  C   UNL     1      -3.652  -7.231  -4.433  0.00  0.00    +0.000 A 
ATOM      2  C   UNL     1      -4.199  -6.969  -5.689  0.00  0.00    +0.000 A 
ATOM      3  C   UNL     1      -3.645  -7.561  -6.831  0.00  0.00    +0.000 A 
ATOM      4  C   UNL     1      -2.545  -8.415  -6.722  0.00  0.00    +0.000 A 
ATOM      5  C   UNL     1      -1.994  -8.682  -5.471  0.00  0.00    +0.000 A 
ATOM      6  C   UNL     1      -2.550  -8.090  -4.345  0.00  0.00    +0.000 A 
ENDROOT
BRANCH   1   8
ATOM      7  C   UNL     1      -4.030  -5.309  -3.088  0.00  0.00    +0.000 C 
ATOM      8  O   UNL     1      -4.089  -6.722  -3.237  0.00  0.00    +0.000 OA
ENDBRANCH   1   8
BRANCH   6   9
ATOM      9  O   UNL     1      -1.991  -8.367  -3.126  0.00  0.00    +0.000 OA
ATOM     10  H   UNL     1      -1.028  -8.285  -3.270  0.00  0.00    +0.000 HD
ENDBRANCH   6   9
TORSDOF 2
ENDMDL
MODEL 3
REMARK VINA RESULT:    -4.568      1.399      2.358
REMARK INTER + INTRA:          -5.012
REMARK INTER:                  -4.970
REMARK INTRA:                  -0.042
REMARK UNBOUND:                -0.044
REMARK  Name = 
REMARK  3 active torsions:
REMARK  status: ('A' for Active; 'I' for Inactive)
REMARK    1  A    between atoms: C_1  and  O_2
REMARK    2  A    between atoms: O_2  and  C_3
REMARK    3  A    between atoms: C_8  and  O_9
REMARK                            x       y       z     vdW  Elec       q    Type
REMARK                         _______ _______ _______ _____ _____    ______ ____
ROOT
ATOM      1  C   UNL     1      -2.064  -8.641  -4.683  0.00  0.00    +0.000 A 
ATOM      2  C   UNL     1      -2.016  -8.627  -6.076  0.00  0.00    +0.000 A 
ATOM      3  C   UNL     1      -3.204  -8.641  -6.818  0.00  0.00    +0.000 A 
ATOM      4  C   UNL     1      -4.441  -8.669  -6.172  0.00  0.00    +0.000 A 
ATOM      5  C   UNL     1      -4.498  -8.682  -4.780  0.00  0.00    +0.000 A 
ATOM      6  C   UNL     1      -3.315  -8.668  -4.053  0.00  0.00    +0.000 A 
ENDROOT
BRANCH   1   8
ATOM      7  C   UNL     1       0.161  -7.915  -4.274  0.00  0.00    +0.000 C 
ATOM      8  O   UNL     1      -0.987  -8.631  -3.834  0.00  0.00    +0.000 OA
ENDBRANCH   1   8
BRANCH   6   9
ATOM      9  O   UNL     1      -3.396  -8.682  -2.686  0.00  0.00    +0.000 OA
ATOM     10  H   UNL     1      -3.081  -9.569  -2.427  0.00  0.00    +0.000 HD
ENDBRANCH   6   9
TORSDOF 2
ENDMDL
MODEL 4
REMARK VINA RESULT:    -4.153     25.450     26.577
REMARK INTER + INTRA:          -4.561
REMARK INTER:                  -4.508
REMARK INTRA:                  -0.053
REMARK UNBOUND:                -0.044
REMARK  Name = 
REMARK  3 active torsions:
REMARK  status: ('A' for Active; 'I' for Inactive)
REMARK    1  A    between atoms: C_1  and  O_2
REMARK    2  A    between atoms: O_2  and  C_3
REMARK    3  A    between atoms: C_8  and  O_9
REMARK                            x       y       z     vdW  Elec       q    Type
REMARK                         _______ _______ _______ _____ _____    ______ ____
ROOT
ATOM      1  C   UNL     1      12.762  12.055 -12.766  0.00  0.00    +0.000 A 
ATOM      2  C   UNL     1      14.025  12.571 -12.478  0.00  0.00    +0.000 A 
ATOM      3  C   UNL     1      15.124  11.709 -12.370  0.00  0.00    +0.000 A 
ATOM      4  C   UNL     1      14.966  10.334 -12.548  0.00  0.00    +0.000 A 
ATOM      5  C   UNL     1      13.707   9.811 -12.836  0.00  0.00    +0.000 A 
ATOM      6  C   UNL     1      12.623  10.673 -12.941  0.00  0.00    +0.000 A 
ENDROOT
BRANCH   1   8
ATOM      7  C   UNL     1      11.130  13.440 -11.733  0.00  0.00    +0.000 C 
ATOM      8  O   UNL     1      11.603  12.776 -12.900  0.00  0.00    +0.000 OA
ENDBRANCH   1   8
BRANCH   6   9
ATOM      9  O   UNL     1      11.396  10.136 -13.225  0.00  0.00    +0.000 OA
ATOM     10  H   UNL     1      11.461   9.203 -12.943  0.00  0.00    +0.000 HD
ENDBRANCH   6   9
TORSDOF 2
ENDMDL
MODEL 5
REMARK VINA RESULT:    -3.974      1.046      2.683
REMARK INTER + INTRA:          -4.366
REMARK INTER:                  -4.313
REMARK INTRA:                  -0.053
REMARK UNBOUND:                -0.044
REMARK  Name = 
REMARK  3 active torsions:
REMARK  status: ('A' for Active; 'I' for Inactive)
REMARK    1  A    between atoms: C_1  and  O_2
REMARK    2  A    between atoms: O_2  and  C_3
REMARK    3  A    between atoms: C_8  and  O_9
REMARK                            x       y       z     vdW  Elec       q    Type
REMARK                         _______ _______ _______ _____ _____    ______ ____
ROOT
ATOM      1  C   UNL     1      -3.265  -8.457  -5.614  0.00  0.00    +0.000 A 
ATOM      2  C   UNL     1      -4.565  -8.523  -5.114  0.00  0.00    +0.000 A 
ATOM      3  C   UNL     1      -4.780  -8.635  -3.735  0.00  0.00    +0.000 A 
ATOM      4  C   UNL     1      -3.699  -8.682  -2.852  0.00  0.00    +0.000 A 
ATOM      5  C   UNL     1      -2.397  -8.616  -3.344  0.00  0.00    +0.000 A 
ATOM      6  C   UNL     1      -2.194  -8.505  -4.713  0.00  0.00    +0.000 A 
ENDROOT
BRANCH   1   8
ATOM      7  C   UNL     1      -3.277  -7.141  -7.593  0.00  0.00    +0.000 C 
ATOM      8  O   UNL     1      -2.908  -8.347  -6.934  0.00  0.00    +0.000 OA
ENDBRANCH   1   8
BRANCH   6   9
ATOM      9  O   UNL     1      -0.905  -8.442  -5.173  0.00  0.00    +0.000 OA
ATOM     10  H   UNL     1      -0.481  -9.253  -4.834  0.00  0.00    +0.000 HD
ENDBRANCH   6   9
TORSDOF 2
ENDMDL
MODEL 6
REMARK VINA RESULT:    -3.811     25.115     26.770
REMARK INTER + INTRA:          -4.189
REMARK INTER:                  -4.139
REMARK INTRA:                  -0.050
REMARK UNBOUND:                -0.044
REMARK  Name = 
REMARK  3 active torsions:
REMARK  status: ('A' for Active; 'I' for Inactive)
REMARK    1  A    between atoms: C_1  and  O_2
REMARK    2  A    between atoms: O_2  and  C_3
REMARK    3  A    between atoms: C_8  and  O_9
REMARK                            x       y       z     vdW  Elec       q    Type
REMARK                         _______ _______ _______ _____ _____    ______ ____
ROOT
ATOM      1  C   UNL     1      13.966  10.364 -12.477  0.00  0.00    +0.000 A 
ATOM      2  C   UNL     1      15.358  10.398 -12.397  0.00  0.00    +0.000 A 
ATOM      3  C   UNL     1      16.029  11.627 -12.398  0.00  0.00    +0.000 A 
ATOM      4  C   UNL     1      15.314  12.824 -12.480  0.00  0.00    +0.000 A 
ATOM      5  C   UNL     1      13.924  12.798 -12.560  0.00  0.00    +0.000 A 
ATOM      6  C   UNL     1      13.267  11.574 -12.558  0.00  0.00    +0.000 A 
ENDROOT
BRANCH   1   8
ATOM      7  C   UNL     1      13.221   8.448 -13.668  0.00  0.00    +0.000 C 
ATOM      8  O   UNL     1      13.182   9.239 -12.486  0.00  0.00    +0.000 OA
ENDBRANCH   1   8
BRANCH   6   9
ATOM      9  O   UNL     1      11.899  11.574 -12.637  0.00  0.00    +0.000 OA
ATOM     10  H   UNL     1      11.651  12.518 -12.631  0.00  0.00    +0.000 HD
ENDBRANCH   6   9
TORSDOF 2
ENDMDL
MODEL 7
REMARK VINA RESULT:    -3.771     25.146     26.343
REMARK INTER + INTRA:          -4.146
REMARK INTER:                  -4.104
REMARK INTRA:                  -0.042
REMARK UNBOUND:                -0.044
REMARK  Name = 
REMARK  3 active torsions:
REMARK  status: ('A' for Active; 'I' for Inactive)
REMARK    1  A    between atoms: C_1  and  O_2
REMARK    2  A    between atoms: O_2  and  C_3
REMARK    3  A    between atoms: C_8  and  O_9
REMARK                            x       y       z     vdW  Elec       q    Type
REMARK                         _______ _______ _______ _____ _____    ______ ____
ROOT
ATOM      1  C   UNL     1      14.153  10.888 -12.497  0.00  0.00    +0.000 A 
ATOM      2  C   UNL     1      14.119  12.281 -12.515  0.00  0.00    +0.000 A 
ATOM      3  C   UNL     1      12.920  12.948 -12.800  0.00  0.00    +0.000 A 
ATOM      4  C   UNL     1      11.755  12.226 -13.068  0.00  0.00    +0.000 A 
ATOM      5  C   UNL     1      11.782  10.834 -13.051  0.00  0.00    +0.000 A 
ATOM      6  C   UNL     1      12.975  10.181 -12.768  0.00  0.00    +0.000 A 
ENDROOT
BRANCH   1   8
ATOM      7  C   UNL     1      16.190  10.624 -11.302  0.00  0.00    +0.000 C 
ATOM      8  O   UNL     1      15.251  10.107 -12.236  0.00  0.00    +0.000 OA
ENDBRANCH   1   8
BRANCH   6   9
ATOM      9  O   UNL     1      12.976   8.812 -12.758  0.00  0.00    +0.000 OA
ATOM     10  H   UNL     1      12.067   8.564 -12.501  0.00  0.00    +0.000 HD
ENDBRANCH   6   9
TORSDOF 2
ENDMDL
MODEL 8
REMARK VINA RESULT:    -3.488     25.100     26.695
REMARK INTER + INTRA:          -3.838
REMARK INTER:                  -3.790
REMARK INTRA:                  -0.048
REMARK UNBOUND:                -0.044
REMARK  Name = 
REMARK  3 active torsions:
REMARK  status: ('A' for Active; 'I' for Inactive)
REMARK    1  A    between atoms: C_1  and  O_2
REMARK    2  A    between atoms: O_2  and  C_3
REMARK    3  A    between atoms: C_8  and  O_9
REMARK                            x       y       z     vdW  Elec       q    Type
REMARK                         _______ _______ _______ _____ _____    ______ ____
ROOT
ATOM      1  C   UNL     1      13.396  10.565 -12.643  0.00  0.00    +0.000 A 
ATOM      2  C   UNL     1      12.341  11.449 -12.871  0.00  0.00    +0.000 A 
ATOM      3  C   UNL     1      12.579  12.829 -12.901  0.00  0.00    +0.000 A 
ATOM      4  C   UNL     1      13.867  13.330 -12.704  0.00  0.00    +0.000 A 
ATOM      5  C   UNL     1      14.925  12.454 -12.476  0.00  0.00    +0.000 A 
ATOM      6  C   UNL     1      14.681  11.087 -12.447  0.00  0.00    +0.000 A 
ENDROOT
BRANCH   1   8
ATOM      7  C   UNL     1      13.102   8.523 -13.821  0.00  0.00    +0.000 C 
ATOM      8  O   UNL     1      13.310   9.197 -12.586  0.00  0.00    +0.000 OA
ENDBRANCH   1   8
BRANCH   6   9
ATOM      9  O   UNL     1      15.737  10.245 -12.221  0.00  0.00    +0.000 OA
ATOM     10  H   UNL     1      15.703   9.601 -12.954  0.00  0.00    +0.000 HD
ENDBRANCH   6   9
TORSDOF 2
ENDMDL
MODEL 9
REMARK VINA RESULT:    -3.472     25.704     26.867
REMARK INTER + INTRA:          -3.820
REMARK INTER:                  -3.782
REMARK INTRA:                  -0.038
REMARK UNBOUND:                -0.044
REMARK  Name = 
REMARK  3 active torsions:
REMARK  status: ('A' for Active; 'I' for Inactive)
REMARK    1  A    between atoms: C_1  and  O_2
REMARK    2  A    between atoms: O_2  and  C_3
REMARK    3  A    between atoms: C_8  and  O_9
REMARK                            x       y       z     vdW  Elec       q    Type
REMARK                         _______ _______ _______ _____ _____    ______ ____
ROOT
ATOM      1  C   UNL     1      12.733  12.134 -12.778  0.00  0.00    +0.000 A 
ATOM      2  C   UNL     1      12.105  10.923 -13.067  0.00  0.00    +0.000 A 
ATOM      3  C   UNL     1      12.844   9.734 -13.064  0.00  0.00    +0.000 A 
ATOM      4  C   UNL     1      14.210   9.749 -12.774  0.00  0.00    +0.000 A 
ATOM      5  C   UNL     1      14.844  10.955 -12.484  0.00  0.00    +0.000 A 
ATOM      6  C   UNL     1      14.103  12.130 -12.489  0.00  0.00    +0.000 A 
ENDROOT
BRANCH   1   8
ATOM      7  C   UNL     1      10.716  13.390 -12.792  0.00  0.00    +0.000 C 
ATOM      8  O   UNL     1      12.137  13.369 -12.746  0.00  0.00    +0.000 OA
ENDBRANCH   1   8
BRANCH   6   9
ATOM      9  O   UNL     1      14.749  13.303 -12.201  0.00  0.00    +0.000 OA
ATOM     10  H   UNL     1      14.079  13.998 -12.346  0.00  0.00    +0.000 HD
ENDBRANCH   6   9
TORSDOF 2
ENDMDL
