MODEL 1
REMARK VINA RESULT:    -4.664      0.000      0.000
REMARK INTER + INTRA:          -5.117
REMARK INTER:                  -5.073
REMARK INTRA:                  -0.044
REMARK UNBOUND:                -0.044
REMARK  Name = 
REMARK  3 active torsions:
REMARK  status: ('A' for Active; 'I' for Inactive)
REMARK    1  A    between atoms: C_1  and  O_2
REMARK    2  A    between atoms: O_2  and  C_3
REMARK    3  A    between atoms: C_8  and  O_9
REMARK                            x       y       z     vdW  Elec       q    Type
REMARK                         _______ _______ _______ _____ _____    ______ ____
ROOT
ATOM      1  C   UNL     1      -1.971  -8.488  -4.797  0.00  0.00    +0.000 A 
ATOM      2  C   UNL     1      -2.588  -8.298  -3.561  0.00  0.00    +0.000 A 
ATOM      3  C   UNL     1      -3.976  -8.121  -3.491  0.00  0.00    +0.000 A 
ATOM      4  C   UNL     1      -4.750  -8.132  -4.653  0.00  0.00    +0.000 A 
ATOM      5  C   UNL     1      -4.141  -8.322  -5.891  0.00  0.00    +0.000 A 
ATOM      6  C   UNL     1      -2.764  -8.497  -5.951  0.00  0.00    +0.000 A 
ENDROOT
BRANCH   1   8
ATOM      7  C   UNL     1       0.255  -7.913  -4.198  0.00  0.00    +0.000 C 
ATOM      8  O   UNL     1      -0.629  -8.672  -5.013  0.00  0.00    +0.000 OA
ENDBRANCH   1   8
BRANCH   6   9
ATOM      9  O   UNL     1      -2.188  -8.681  -7.180  0.00  0.00    +0.000 OA
ATOM     10  H   UNL     1      -1.485  -8.006  -7.228  0.00  0.00    +0.000 HD
ENDBRANCH   6   9
TORSDOF 2
ENDMDL
MODEL 2
REMARK VINA RESULT:    -4.595      2.091      3.388
REMARK INTER + INTRA:          -5.042
REMARK INTER:                  -4.990
REMARK INTRA:                  -0.052
REMARK UNBOUND:                -0.044
REMARK  Name = 
REMARK  3 active torsions:
REMARK  status: ('A' for Active; 'I' for Inactive)
REMARK    1  A    between atoms: C_1  and  O_2
REMARK    2  A    between atoms: O_2  and  C_3
REMARK    3  A    between atoms: C_8  and  O_9
REMARK                            x       y       z     vdW  Elec       q    Type
REMARK                         _______ _______ _______ _____ _____    ______ ____
ROOT
ATOM      1  C   UNL     1      -3.636  -7.235  -4.434  0.00  0.00    +0.000 A 
ATOM      2  C   UNL     1      -4.197  -6.976  -5.684  0.00  0.00    +0.000 A 
ATOM      3  C   UNL     1      -3.654  -7.568  -6.831  0.00  0.00    +0.000 A 
ATOM      4  C   UNL     1      -2.551  -8.418  -6.734  0.00  0.00    +0.000 A 
ATOM      5  C   UNL     1      -1.985  -8.682  -5.488  0.00  0.00    +0.000 A 
ATOM      6  C   UNL     1      -2.530  -8.090  -4.356  0.00  0.00    +0.000 A 
ENDROOT
BRANCH   1   8
ATOM      7  C   UNL     1      -4.026  -5.310  -3.095  0.00  0.00    +0.000 C 
ATOM      8  O   UNL     1      -4.062  -6.726  -3.233  0.00  0.00    +0.000 OA
ENDBRANCH   1   8
BRANCH   6   9
ATOM      9  O   UNL     1      -1.957  -8.364  -3.143  0.00  0.00    +0.000 OA
ATOM     10  H   UNL     1      -2.117  -9.317  -3.003  0.00  0.00    +0.000 HD
ENDBRANCH   6   9
TORSDOF 2
ENDMDL
MODEL 3
REMARK VINA RESULT:    -4.544      1.396      2.350
REMARK INTER + INTRA:          -4.986
REMARK INTER:                  -4.943
REMARK INTRA:                  -0.043
REMARK UNBOUND:                -0.044
REMARK  Name = 
REMARK  3 active torsions:
REMARK  status: ('A' for Active; 'I' for Inactive)
REMARK    1  A    between atoms: C_1  and  O_2
REMARK    2  A    between atoms: O_2  and  C_3
REMARK    3  A    between atoms: C_8  and  O_9
REMARK                            x       y       z     vdW  Elec       q    Type
REMARK                         _______ _______ _______ _____ _____    ______ ____
ROOT
ATOM      1  C   UNL     1      -2.002  -8.637  -4.672  0.00  0.00    +0.000 A 
ATOM      2  C   UNL     1      -1.947  -8.593  -6.065  0.00  0.00    +0.000 A 
ATOM      3  C   UNL     1      -3.131  -8.551  -6.811  0.00  0.00    +0.000 A 
ATOM      4  C   UNL     1      -4.372  -8.554  -6.170  0.00  0.00    +0.000 A 
ATOM      5  C   UNL     1      -4.435  -8.597  -4.779  0.00  0.00    +0.000 A 
ATOM      6  C   UNL     1      -3.255  -8.638  -4.047  0.00  0.00    +0.000 A 
ENDROOT
BRANCH   1   8
ATOM      7  C   UNL     1       0.224  -7.945  -4.210  0.00  0.00    +0.000 C 
ATOM      8  O   UNL     1      -0.929  -8.681  -3.819  0.00  0.00    +0.000 OA
ENDBRANCH   1   8
BRANCH   6   9
ATOM      9  O   UNL     1      -3.343  -8.681  -2.681  0.00  0.00    +0.000 OA
ATOM     10  H   UNL     1      -3.862  -9.485  -2.491  0.00  0.00    +0.000 HD
ENDBRANCH   6   9
TORSDOF 2
ENDMDL
MODEL 4
REMARK VINA RESULT:    -4.129     25.367     26.492
REMARK INTER + INTRA:          -4.535
REMARK INTER:                  -4.483
REMARK INTRA:                  -0.052
REMARK UNBOUND:                -0.044
REMARK  Name = 
REMARK  3 active torsions:
REMARK  status: ('A' for Active; 'I' for Inactive)
REMARK    1  A    between atoms: C_1  and  O_2
REMARK    2  A    between atoms: O_2  and  C_3
REMARK    3  A    between atoms: C_8  and  O_9
REMARK                            x       y       z     vdW  Elec       q    Type
REMARK                         _______ _______ _______ _____ _____    ______ ____
ROOT
ATOM      1  C   UNL     1      12.702  11.998 -12.817  0.00  0.00    +0.000 A 
ATOM      2  C   UNL     1      13.951  12.512 -12.470  0.00  0.00    +0.000 A 
ATOM      3  C   UNL     1      15.040  11.648 -12.298  0.00  0.00    +0.000 A 
ATOM      4  C   UNL     1      14.885  10.272 -12.471  0.00  0.00    +0.000 A 
ATOM      5  C   UNL     1      13.641   9.750 -12.818  0.00  0.00    +0.000 A 
ATOM      6  C   UNL     1      12.566  10.614 -12.986  0.00  0.00    +0.000 A 
ENDROOT
BRANCH   1   8
ATOM      7  C   UNL     1      11.056  13.443 -11.895  0.00  0.00    +0.000 C 
ATOM      8  O   UNL     1      11.554  12.722 -13.016  0.00  0.00    +0.000 OA
ENDBRANCH   1   8
BRANCH   6   9
ATOM      9  O   UNL     1      11.353  10.079 -13.326  0.00  0.00    +0.000 OA
ATOM     10  H   UNL     1      10.972   9.769 -12.482  0.00  0.00    +0.000 HD
ENDBRANCH   6   9
TORSDOF 2
ENDMDL
MODEL 5
REMARK VINA RESULT:    -3.884      1.048      2.684
REMARK INTER + INTRA:          -4.268
REMARK INTER:                  -4.217
REMARK INTRA:                  -0.051
REMARK UNBOUND:                -0.044
REMARK  Name = 
REMARK  3 active torsions:
REMARK  status: ('A' for Active; 'I' for Inactive)
REMARK    1  A    between atoms: C_1  and  O_2
REMARK    2  A    between atoms: O_2  and  C_3
REMARK    3  A    between atoms: C_8  and  O_9
REMARK                            x       y       z     vdW  Elec       q    Type
REMARK                         _______ _______ _______ _____ _____    ______ ____
ROOT
ATOM      1  C   UNL     1      -3.242  -8.258  -5.655  0.00  0.00    +0.000 A 
ATOM      2  C   UNL     1      -4.546  -8.239  -5.163  0.00  0.00    +0.000 A 
ATOM      3  C   UNL     1      -4.781  -8.430  -3.796  0.00  0.00    +0.000 A 
ATOM      4  C   UNL     1      -3.717  -8.642  -2.917  0.00  0.00    +0.000 A 
ATOM      5  C   UNL     1      -2.411  -8.663  -3.401  0.00  0.00    +0.000 A 
ATOM      6  C   UNL     1      -2.187  -8.473  -4.758  0.00  0.00    +0.000 A 
ENDROOT
BRANCH   1   8
ATOM      7  C   UNL     1      -3.277  -6.878  -7.588  0.00  0.00    +0.000 C 
ATOM      8  O   UNL     1      -2.865  -8.087  -6.963  0.00  0.00    +0.000 OA
ENDBRANCH   1   8
BRANCH   6   9
ATOM      9  O   UNL     1      -0.895  -8.497  -5.210  0.00  0.00    +0.000 OA
ATOM     10  H   UNL     1      -0.368  -8.790  -4.442  0.00  0.00    +0.000 HD
ENDBRANCH   6   9
TORSDOF 2
ENDMDL
MODEL 6
REMARK VINA RESULT:    -3.845      1.958      3.096
REMARK INTER + INTRA:          -4.225
REMARK INTER:                  -4.176
REMARK INTRA:                  -0.049
REMARK UNBOUND:                -0.044
REMARK  Name = 
REMARK  3 active torsions:
REMARK  status: ('A' for Active; 'I' for Inactive)
REMARK    1  A    between atoms: C_1  and  O_2
REMARK    2  A    between atoms: O_2  and  C_3
REMARK    3  A    between atoms: C_8  and  O_9
REMARK                            x       y       z     vdW  Elec       q    Type
REMARK                         _______ _______ _______ _____ _____    ______ ____
ROOT
ATOM      1  C   UNL     1      -3.473  -7.470  -4.548  0.00  0.00    +0.000 A 
ATOM      2  C   UNL     1      -2.540  -7.622  -3.523  0.00  0.00    +0.000 A 
ATOM      3  C   UNL     1      -1.304  -8.227  -3.786  0.00  0.00    +0.000 A 
ATOM      4  C   UNL     1      -0.998  -8.682  -5.069  0.00  0.00    +0.000 A 
ATOM      5  C   UNL     1      -1.924  -8.534  -6.099  0.00  0.00    +0.000 A 
ATOM      6  C   UNL     1      -3.147  -7.933  -5.829  0.00  0.00    +0.000 A 
ENDROOT
BRANCH   1   8
ATOM      7  C   UNL     1      -4.770  -5.607  -3.845  0.00  0.00    +0.000 C 
ATOM      8  O   UNL     1      -4.716  -6.900  -4.436  0.00  0.00    +0.000 OA
ENDBRANCH   1   8
BRANCH   6   9
ATOM      9  O   UNL     1      -4.042  -7.798  -6.857  0.00  0.00    +0.000 OA
ATOM     10  H   UNL     1      -4.395  -8.697  -6.998  0.00  0.00    +0.000 HD
ENDBRANCH   6   9
TORSDOF 2
ENDMDL
MODEL 7
REMARK VINA RESULT:    -3.842     25.063     26.720
REMARK INTER + INTRA:          -4.222
REMARK INTER:                  -4.171
REMARK INTRA:                  -0.051
REMARK UNBOUND:                -0.044
REMARK  Name = 
REMARK  3 active torsions:
REMARK  status: ('A' for Active; 'I' for Inactive)
REMARK    1  A    between atoms: C_1  and  O_2
REMARK    2  A    between atoms: O_2  and  C_3
REMARK    3  A    between atoms: C_8  and  O_9
REMARK                            x       y       z     vdW  Elec       q    Type
REMARK                         _______ _______ _______ _____ _____    ______ ____
ROOT
ATOM      1  C   UNL     1      13.935  10.360 -12.462  0.00  0.00    +0.000 A 
ATOM      2  C   UNL     1      15.325  10.422 -12.372  0.00  0.00    +0.000 A 
ATOM      3  C   UNL     1      15.972  11.663 -12.393  0.00  0.00    +0.000 A 
ATOM      4  C   UNL     1      15.236  12.844 -12.504  0.00  0.00    +0.000 A 
ATOM      5  C   UNL     1      13.847  12.790 -12.595  0.00  0.00    +0.000 A 
ATOM      6  C   UNL     1      13.213  11.554 -12.573  0.00  0.00    +0.000 A 
ENDROOT
BRANCH   1   8
ATOM      7  C   UNL     1      13.256   8.392 -13.609  0.00  0.00    +0.000 C 
ATOM      8  O   UNL     1      13.172   9.220 -12.455  0.00  0.00    +0.000 OA
ENDBRANCH   1   8
BRANCH   6   9
ATOM      9  O   UNL     1      11.847  11.527 -12.664  0.00  0.00    +0.000 OA
ATOM     10  H   UNL     1      11.594  12.445 -12.876  0.00  0.00    +0.000 HD
ENDBRANCH   6   9
TORSDOF 2
ENDMDL
MODEL 8
REMARK VINA RESULT:    -3.483      2.459      3.364
REMARK INTER + INTRA:          -3.832
REMARK INTER:                  -3.795
REMARK INTRA:                  -0.037
REMARK UNBOUND:                -0.044
REMARK  Name = 
REMARK  3 active torsions:
REMARK  status: ('A' for Active; 'I' for Inactive)
REMARK    1  A    between atoms: C_1  and  O_2
REMARK    2  A    between atoms: O_2  and  C_3
REMARK    3  A    between atoms: C_8  and  O_9
REMARK                            x       y       z     vdW  Elec       q    Type
REMARK                         _______ _______ _______ _____ _____    ______ ____
ROOT
ATOM      1  C   UNL     1      -4.050  -7.134  -5.383  0.00  0.00    +0.000 A 
ATOM      2  C   UNL     1      -4.056  -8.438  -4.890  0.00  0.00    +0.000 A 
ATOM      3  C   UNL     1      -4.422  -8.682  -3.560  0.00  0.00    +0.000 A 
ATOM      4  C   UNL     1      -4.781  -7.627  -2.720  0.00  0.00    +0.000 A 
ATOM      5  C   UNL     1      -4.778  -6.321  -3.205  0.00  0.00    +0.000 A 
ATOM      6  C   UNL     1      -4.414  -6.088  -4.525  0.00  0.00    +0.000 A 
ENDROOT
BRANCH   1   8
ATOM      7  C   UNL     1      -3.308  -7.784  -7.545  0.00  0.00    +0.000 C 
ATOM      8  O   UNL     1      -3.715  -6.750  -6.656  0.00  0.00    +0.000 OA
ENDBRANCH   1   8
BRANCH   6   9
ATOM      9  O   UNL     1      -4.418  -4.796  -4.979  0.00  0.00    +0.000 OA
ATOM     10  H   UNL     1      -3.482  -4.597  -5.170  0.00  0.00    +0.000 HD
ENDBRANCH   6   9
TORSDOF 2
ENDMDL
MODEL 9
REMARK VINA RESULT:    -3.416      1.737      3.259
REMARK INTER + INTRA:          -3.759
REMARK INTER:                  -3.717
REMARK INTRA:                  -0.042
REMARK UNBOUND:                -0.044
REMARK  Name = 
REMARK  3 active torsions:
REMARK  status: ('A' for Active; 'I' for Inactive)
REMARK    1  A    between atoms: C_1  and  O_2
REMARK    2  A    between atoms: O_2  and  C_3
REMARK    3  A    between atoms: C_8  and  O_9
REMARK                            x       y       z     vdW  Elec       q    Type
REMARK                         _______ _______ _______ _____ _____    ______ ____
ROOT
ATOM      1  C   UNL     1      -2.750  -8.376  -5.906  0.00  0.00    +0.000 A 
ATOM      2  C   UNL     1      -1.389  -8.671  -5.833  0.00  0.00    +0.000 A 
ATOM      3  C   UNL     1      -0.742  -8.682  -4.590  0.00  0.00    +0.000 A 
ATOM      4  C   UNL     1      -1.451  -8.399  -3.421  0.00  0.00    +0.000 A 
ATOM      5  C   UNL     1      -2.811  -8.105  -3.486  0.00  0.00    +0.000 A 
ATOM      6  C   UNL     1      -3.444  -8.095  -4.723  0.00  0.00    +0.000 A 
ENDROOT
BRANCH   1   8
ATOM      7  C   UNL     1      -3.328  -7.191  -7.883  0.00  0.00    +0.000 C 
ATOM      8  O   UNL     1      -3.509  -8.329  -7.048  0.00  0.00    +0.000 OA
ENDBRANCH   1   8
BRANCH   6   9
ATOM      9  O   UNL     1      -4.781  -7.803  -4.762  0.00  0.00    +0.000 OA
ATOM     10  H   UNL     1      -5.114  -8.042  -3.876  0.00  0.00    +0.000 HD
ENDBRANCH   6   9
TORSDOF 2
ENDMDL
