MODEL 1
REMARK VINA RESULT:    -4.666      0.000      0.000
REMARK INTER + INTRA:          -5.123
REMARK INTER:                  -5.075
REMARK INTRA:                  -0.048
REMARK UNBOUND:                -0.048
REMARK  Name = 
REMARK  3 active torsions:
REMARK  status: ('A' for Active; 'I' for Inactive)
REMARK    1  A    between atoms: C_1  and  O_2
REMARK    2  A    between atoms: O_2  and  C_3
REMARK    3  A    between atoms: C_8  and  O_9
REMARK                            x       y       z     vdW  Elec       q    Type
REMARK                         _______ _______ _______ _____ _____    ______ ____
ROOT
ATOM      1  C   UNL     1      -2.008  -8.466  -4.703  0.00  0.00    +0.000 A 
ATOM      2  C   UNL     1      -2.665  -8.265  -3.489  0.00  0.00    +0.000 A 
ATOM      3  C   UNL     1      -4.049  -8.057  -3.469  0.00  0.00    +0.000 A 
ATOM      4  C   UNL     1      -4.781  -8.048  -4.658  0.00  0.00    +0.000 A 
ATOM      5  C   UNL     1      -4.133  -8.248  -5.874  0.00  0.00    +0.000 A 
ATOM      6  C   UNL     1      -2.759  -8.454  -5.885  0.00  0.00    +0.000 A 
ENDROOT
BRANCH   1   8
ATOM      7  C   UNL     1       0.211  -7.787  -4.195  0.00  0.00    +0.000 C 
ATOM      8  O   UNL     1      -0.664  -8.681  -4.872  0.00  0.00    +0.000 OA
ENDBRANCH   1   8
BRANCH   6   9
ATOM      9  O   UNL     1      -2.144  -8.649  -7.093  0.00  0.00    +0.000 OA
ATOM     10  H   UNL     1      -2.298  -9.590  -7.301  0.00  0.00    +0.000 HD
ENDBRANCH   6   9
TORSDOF 2
ENDMDL
MODEL 2
REMARK VINA RESULT:    -4.593      1.403      2.361
REMARK INTER + INTRA:          -5.044
REMARK INTER:                  -5.002
REMARK INTRA:                  -0.042
REMARK UNBOUND:                -0.048
REMARK  Name = 
REMARK  3 active torsions:
REMARK  status: ('A' for Active; 'I' for Inactive)
REMARK    1  A    between atoms: C_1  and  O_2
REMARK    2  A    between atoms: O_2  and  C_3
REMARK    3  A    between atoms: C_8  and  O_9
REMARK                            x       y       z     vdW  Elec       q    Type
REMARK                         _______ _______ _______ _____ _____    ______ ____
ROOT
ATOM      1  C   UNL     1      -2.126  -8.678  -4.623  0.00  0.00    +0.000 A 
ATOM      2  C   UNL     1      -2.075  -8.676  -6.016  0.00  0.00    +0.000 A 
ATOM      3  C   UNL     1      -3.262  -8.676  -6.760  0.00  0.00    +0.000 A 
ATOM      4  C   UNL     1      -4.500  -8.679  -6.116  0.00  0.00    +0.000 A 
ATOM      5  C   UNL     1      -4.559  -8.680  -4.724  0.00  0.00    +0.000 A 
ATOM      6  C   UNL     1      -3.377  -8.680  -3.995  0.00  0.00    +0.000 A 
ENDROOT
BRANCH   1   8
ATOM      7  C   UNL     1       0.113  -7.990  -4.218  0.00  0.00    +0.000 C 
ATOM      8  O   UNL     1      -1.050  -8.679  -3.772  0.00  0.00    +0.000 OA
ENDBRANCH   1   8
BRANCH   6   9
ATOM      9  O   UNL     1      -3.461  -8.682  -2.628  0.00  0.00    +0.000 OA
ATOM     10  H   UNL     1      -3.125  -9.559  -2.359  0.00  0.00    +0.000 HD
ENDBRANCH   6   9
TORSDOF 2
ENDMDL
MODEL 3
REMARK VINA RESULT:    -4.117     25.433     26.544
REMARK INTER + INTRA:          -4.525
REMARK INTER:                  -4.473
REMARK INTRA:                  -0.052
REMARK UNBOUND:                -0.048
REMARK  Name = 
REMARK  3 active torsions:
REMARK  status: ('A' for Active; 'I' for Inactive)
REMARK    1  A    between atoms: C_1  and  O_2
REMARK    2  A    between atoms: O_2  and  C_3
REMARK    3  A    between atoms: C_8  and  O_9
REMARK                            x       y       z     vdW  Elec       q    Type
REMARK                         _______ _______ _______ _____ _____    ______ ____
ROOT
ATOM      1  C   UNL     1      12.673  12.072 -12.813  0.00  0.00    +0.000 A 
ATOM      2  C   UNL     1      13.915  12.619 -12.495  0.00  0.00    +0.000 A 
ATOM      3  C   UNL     1      15.034  11.787 -12.367  0.00  0.00    +0.000 A 
ATOM      4  C   UNL     1      14.917  10.409 -12.555  0.00  0.00    +0.000 A 
ATOM      5  C   UNL     1      13.679   9.854 -12.873  0.00  0.00    +0.000 A 
ATOM      6  C   UNL     1      12.574  10.687 -12.997  0.00  0.00    +0.000 A 
ENDROOT
BRANCH   1   8
ATOM      7  C   UNL     1      11.005  13.442 -11.820  0.00  0.00    +0.000 C 
ATOM      8  O   UNL     1      11.498  12.762 -12.968  0.00  0.00    +0.000 OA
ENDBRANCH   1   8
BRANCH   6   9
ATOM      9  O   UNL     1      11.368  10.119 -13.310  0.00  0.00    +0.000 OA
ATOM     10  H   UNL     1      11.054   9.727 -12.473  0.00  0.00    +0.000 HD
ENDBRANCH   6   9
TORSDOF 2
ENDMDL
MODEL 4
REMARK VINA RESULT:    -4.049      1.017      2.683
REMARK INTER + INTRA:          -4.452
REMARK INTER:                  -4.403
REMARK INTRA:                  -0.048
REMARK UNBOUND:                -0.048
REMARK  Name = 
REMARK  3 active torsions:
REMARK  status: ('A' for Active; 'I' for Inactive)
REMARK    1  A    between atoms: C_1  and  O_2
REMARK    2  A    between atoms: O_2  and  C_3
REMARK    3  A    between atoms: C_8  and  O_9
REMARK                            x       y       z     vdW  Elec       q    Type
REMARK                         _______ _______ _______ _____ _____    ______ ____
ROOT
ATOM      1  C   UNL     1      -3.129  -8.330  -5.548  0.00  0.00    +0.000 A 
ATOM      2  C   UNL     1      -4.462  -8.447  -5.156  0.00  0.00    +0.000 A 
ATOM      3  C   UNL     1      -4.781  -8.620  -3.803  0.00  0.00    +0.000 A 
ATOM      4  C   UNL     1      -3.772  -8.678  -2.840  0.00  0.00    +0.000 A 
ATOM      5  C   UNL     1      -2.438  -8.562  -3.224  0.00  0.00    +0.000 A 
ATOM      6  C   UNL     1      -2.131  -8.391  -4.568  0.00  0.00    +0.000 A 
ENDROOT
BRANCH   1   8
ATOM      7  C   UNL     1      -3.286  -7.122  -7.588  0.00  0.00    +0.000 C 
ATOM      8  O   UNL     1      -2.673  -8.158  -6.830  0.00  0.00    +0.000 OA
ENDBRANCH   1   8
BRANCH   6   9
ATOM      9  O   UNL     1      -0.813  -8.279  -4.921  0.00  0.00    +0.000 OA
ATOM     10  H   UNL     1      -0.639  -9.058  -5.483  0.00  0.00    +0.000 HD
ENDBRANCH   6   9
TORSDOF 2
ENDMDL
MODEL 5
REMARK VINA RESULT:    -3.821     25.020     26.715
REMARK INTER + INTRA:          -4.203
REMARK INTER:                  -4.152
REMARK INTRA:                  -0.051
REMARK UNBOUND:                -0.048
REMARK  Name = 
REMARK  3 active torsions:
REMARK  status: ('A' for Active; 'I' for Inactive)
REMARK    1  A    between atoms: C_1  and  O_2
REMARK    2  A    between atoms: O_2  and  C_3
REMARK    3  A    between atoms: C_8  and  O_9
REMARK                            x       y       z     vdW  Elec       q    Type
REMARK                         _______ _______ _______ _____ _____    ______ ____
ROOT
ATOM      1  C   UNL     1      13.938  10.353 -12.461  0.00  0.00    +0.000 A 
ATOM      2  C   UNL     1      15.329  10.401 -12.380  0.00  0.00    +0.000 A 
ATOM      3  C   UNL     1      15.987  11.637 -12.373  0.00  0.00    +0.000 A 
ATOM      4  C   UNL     1      15.259  12.827 -12.448  0.00  0.00    +0.000 A 
ATOM      5  C   UNL     1      13.869  12.786 -12.529  0.00  0.00    +0.000 A 
ATOM      6  C   UNL     1      13.225  11.556 -12.536  0.00  0.00    +0.000 A 
ENDROOT
BRANCH   1   8
ATOM      7  C   UNL     1      13.233   8.423 -13.655  0.00  0.00    +0.000 C 
ATOM      8  O   UNL     1      13.165   9.219 -12.478  0.00  0.00    +0.000 OA
ENDBRANCH   1   8
BRANCH   6   9
ATOM      9  O   UNL     1      11.858  11.542 -12.616  0.00  0.00    +0.000 OA
ATOM     10  H   UNL     1      11.661  11.780 -13.542  0.00  0.00    +0.000 HD
ENDBRANCH   6   9
TORSDOF 2
ENDMDL
MODEL 6
REMARK VINA RESULT:    -3.815     25.125     26.364
REMARK INTER + INTRA:          -4.197
REMARK INTER:                  -4.158
REMARK INTRA:                  -0.038
REMARK UNBOUND:                -0.048
REMARK  Name = 
REMARK  3 active torsions:
REMARK  status: ('A' for Active; 'I' for Inactive)
REMARK    1  A    between atoms: C_1  and  O_2
REMARK    2  A    between atoms: O_2  and  C_3
REMARK    3  A    between atoms: C_8  and  O_9
REMARK                            x       y       z     vdW  Elec       q    Type
REMARK                         _______ _______ _______ _____ _____    ______ ____
ROOT
ATOM      1  C   UNL     1      14.149  10.857 -12.483  0.00  0.00    +0.000 A 
ATOM      2  C   UNL     1      14.115  12.251 -12.486  0.00  0.00    +0.000 A 
ATOM      3  C   UNL     1      12.924  12.921 -12.797  0.00  0.00    +0.000 A 
ATOM      4  C   UNL     1      11.768  12.203 -13.104  0.00  0.00    +0.000 A 
ATOM      5  C   UNL     1      11.793  10.810 -13.103  0.00  0.00    +0.000 A 
ATOM      6  C   UNL     1      12.978  10.154 -12.794  0.00  0.00    +0.000 A 
ENDROOT
BRANCH   1   8
ATOM      7  C   UNL     1      16.507  10.717 -12.227  0.00  0.00    +0.000 C 
ATOM      8  O   UNL     1      15.238  10.074 -12.200  0.00  0.00    +0.000 OA
ENDBRANCH   1   8
BRANCH   6   9
ATOM      9  O   UNL     1      12.979   8.785 -12.799  0.00  0.00    +0.000 OA
ATOM     10  H   UNL     1      12.517   8.539 -13.623  0.00  0.00    +0.000 HD
ENDBRANCH   6   9
TORSDOF 2
ENDMDL
MODEL 7
REMARK VINA RESULT:    -3.426     25.737     26.896
REMARK INTER + INTRA:          -3.774
REMARK INTER:                  -3.736
REMARK INTRA:                  -0.038
REMARK UNBOUND:                -0.048
REMARK  Name = 
REMARK  3 active torsions:
REMARK  status: ('A' for Active; 'I' for Inactive)
REMARK    1  A    between atoms: C_1  and  O_2
REMARK    2  A    between atoms: O_2  and  C_3
REMARK    3  A    between atoms: C_8  and  O_9
REMARK                            x       y       z     vdW  Elec       q    Type
REMARK                         _______ _______ _______ _____ _____    ______ ____
ROOT
ATOM      1  C   UNL     1      12.841  12.135 -12.724  0.00  0.00    +0.000 A 
ATOM      2  C   UNL     1      12.202  10.929 -13.009  0.00  0.00    +0.000 A 
ATOM      3  C   UNL     1      12.940   9.740 -13.055  0.00  0.00    +0.000 A 
ATOM      4  C   UNL     1      14.315   9.750 -12.817  0.00  0.00    +0.000 A 
ATOM      5  C   UNL     1      14.961  10.951 -12.532  0.00  0.00    +0.000 A 
ATOM      6  C   UNL     1      14.222  12.126 -12.489  0.00  0.00    +0.000 A 
ENDROOT
BRANCH   1   8
ATOM      7  C   UNL     1      10.826  13.390 -12.624  0.00  0.00    +0.000 C 
ATOM      8  O   UNL     1      12.248  13.370 -12.648  0.00  0.00    +0.000 OA
ENDBRANCH   1   8
BRANCH   6   9
ATOM      9  O   UNL     1      14.879  13.294 -12.206  0.00  0.00    +0.000 OA
ATOM     10  H   UNL     1      15.289  13.143 -11.333  0.00  0.00    +0.000 HD
ENDBRANCH   6   9
TORSDOF 2
ENDMDL
