MODEL 1
REMARK VINA RESULT:    -3.743      0.000      0.000
REMARK INTER + INTRA:          -4.079
REMARK INTER:                  -5.056
REMARK INTRA:                   0.976
REMARK UNBOUND:                 0.976
REMARK  Name = 
REMARK  10 active torsions:
REMARK  status: ('A' for Active; 'I' for Inactive)
REMARK    1  A    between atoms: C_1  and  C_2
REMARK    2  A    between atoms: C_5  and  N_8
REMARK    3  A    between atoms: N_8  and  C_9
REMARK    4  A    between atoms: N_8  and  C_13
REMARK    5  A    between atoms: C_9  and  C_10
REMARK    6  A    between atoms: C_10  and  C_11
REMARK    7  A    between atoms: C_10  and  O_12
REMARK    8  A    between atoms: C_13  and  C_14
REMARK    9  A    between atoms: C_14  and  C_15
REMARK   10  A    between atoms: C_14  and  O_16
REMARK                            x       y       z     vdW  Elec       q    Type
REMARK                         _______ _______ _______ _____ _____    ______ ____
ROOT
ATOM      1  N   UNL     1      -1.716  -7.558  -4.029  0.00  0.00    +0.000 N 
ENDROOT
BRANCH   1   6
ATOM      2  C   UNL     1       4.056  -7.575  -4.153  0.00  0.00    +0.000 C 
ATOM      3  C   UNL     1       2.558  -7.562  -4.144  0.00  0.00    +0.000 A 
ATOM      4  C   UNL     1       1.857  -6.461  -3.663  0.00  0.00    +0.000 A 
ATOM      5  C   UNL     1       0.453  -6.466  -3.629  0.00  0.00    +0.000 A 
ATOM      6  C   UNL     1      -0.315  -7.568  -4.048  0.00  0.00    +0.000 A 
ATOM      7  C   UNL     1       0.427  -8.661  -4.530  0.00  0.00    +0.000 A 
ATOM      8  C   UNL     1       1.831  -8.669  -4.572  0.00  0.00    +0.000 A 
ENDBRANCH   1   6
BRANCH   1   9
ATOM      9  C   UNL     1      -2.475  -8.682  -4.628  0.00  0.00    +0.000 C 
BRANCH   9  10
ATOM     10  C   UNL     1      -2.547  -8.603  -6.172  0.00  0.00    +0.000 C 
ATOM     11  C   UNL     1      -3.990  -8.680  -6.655  0.00  0.00    +0.000 C 
BRANCH  10  12
ATOM     12  O   UNL     1      -1.983  -7.374  -6.652  0.00  0.00    +0.000 OA
ATOM     13  H   UNL     1      -2.356  -6.647  -6.127  0.00  0.00    +0.000 HD
ENDBRANCH  10  12
ENDBRANCH   9  10
ENDBRANCH   1   9
BRANCH   1  14
ATOM     14  C   UNL     1      -2.474  -6.286  -3.909  0.00  0.00    +0.000 C 
BRANCH  14  15
ATOM     15  C   UNL     1      -3.999  -6.499  -4.063  0.00  0.00    +0.000 C 
ATOM     16  C   UNL     1      -4.612  -7.295  -2.916  0.00  0.00    +0.000 C 
BRANCH  15  17
ATOM     17  O   UNL     1      -4.697  -5.259  -4.163  0.00  0.00    +0.000 OA
ATOM     18  H   UNL     1      -4.244  -4.770  -4.879  0.00  0.00    +0.000 HD
ENDBRANCH  15  17
ENDBRANCH  14  15
ENDBRANCH   1  14
TORSDOF 7
ENDMDL
MODEL 2
REMARK VINA RESULT:    -3.296     23.355     25.487
REMARK INTER + INTRA:          -3.476
REMARK INTER:                  -3.096
REMARK INTRA:                  -0.380
REMARK UNBOUND:                 0.976
REMARK  Name = 
REMARK  10 active torsions:
REMARK  status: ('A' for Active; 'I' for Inactive)
REMARK    1  A    between atoms: C_1  and  C_2
REMARK    2  A    between atoms: C_5  and  N_8
REMARK    3  A    between atoms: N_8  and  C_9
REMARK    4  A    between atoms: N_8  and  C_13
REMARK    5  A    between atoms: C_9  and  C_10
REMARK    6  A    between atoms: C_10  and  C_11
REMARK    7  A    between atoms: C_10  and  O_12
REMARK    8  A    between atoms: C_13  and  C_14
REMARK    9  A    between atoms: C_14  and  C_15
REMARK   10  A    between atoms: C_14  and  O_16
REMARK                            x       y       z     vdW  Elec       q    Type
REMARK                         _______ _______ _______ _____ _____    ______ ____
ROOT
ATOM      1  N   UNL     1      14.102  12.228 -12.416  0.00  0.00    +0.000 N 
ENDROOT
BRANCH   1   6
ATOM      2  C   UNL     1      13.415   6.628 -13.639  0.00  0.00    +0.000 C 
ATOM      3  C   UNL     1      13.586   8.077 -13.298  0.00  0.00    +0.000 A 
ATOM      4  C   UNL     1      12.554   8.986 -13.509  0.00  0.00    +0.000 A 
ATOM      5  C   UNL     1      12.730  10.348 -13.215  0.00  0.00    +0.000 A 
ATOM      6  C   UNL     1      13.940  10.871 -12.725  0.00  0.00    +0.000 A 
ATOM      7  C   UNL     1      14.960   9.923 -12.523  0.00  0.00    +0.000 A 
ATOM      8  C   UNL     1      14.797   8.558 -12.810  0.00  0.00    +0.000 A 
ENDBRANCH   1   6
BRANCH   1   9
ATOM      9  C   UNL     1      13.097  13.219 -12.871  0.00  0.00    +0.000 C 
BRANCH   9  10
ATOM     10  C   UNL     1      11.964  13.442 -11.839  0.00  0.00    +0.000 C 
ATOM     11  C   UNL     1      10.619  12.999 -12.402  0.00  0.00    +0.000 C 
BRANCH  10  12
ATOM     12  O   UNL     1      12.209  12.700 -10.637  0.00  0.00    +0.000 OA
ATOM     13  H   UNL     1      12.890  12.033 -10.828  0.00  0.00    +0.000 HD
ENDBRANCH  10  12
ENDBRANCH   9  10
ENDBRANCH   1   9
BRANCH   1  14
ATOM     14  C   UNL     1      15.441  12.792 -12.110  0.00  0.00    +0.000 C 
BRANCH  14  15
ATOM     15  C   UNL     1      15.891  12.478 -10.663  0.00  0.00    +0.000 C 
ATOM     16  C   UNL     1      17.277  13.020 -10.335  0.00  0.00    +0.000 C 
BRANCH  15  17
ATOM     17  O   UNL     1      14.974  12.999  -9.701  0.00  0.00    +0.000 OA
ATOM     18  H   UNL     1      15.085  12.430  -8.913  0.00  0.00    +0.000 HD
ENDBRANCH  15  17
ENDBRANCH  14  15
ENDBRANCH   1  14
TORSDOF 7
ENDMDL
MODEL 3
REMARK VINA RESULT:    -2.755     23.661     25.856
REMARK INTER + INTRA:          -2.745
REMARK INTER:                  -2.873
REMARK INTRA:                   0.129
REMARK UNBOUND:                 0.976
REMARK  Name = 
REMARK  10 active torsions:
REMARK  status: ('A' for Active; 'I' for Inactive)
REMARK    1  A    between atoms: C_1  and  C_2
REMARK    2  A    between atoms: C_5  and  N_8
REMARK    3  A    between atoms: N_8  and  C_9
REMARK    4  A    between atoms: N_8  and  C_13
REMARK    5  A    between atoms: C_9  and  C_10
REMARK    6  A    between atoms: C_10  and  C_11
REMARK    7  A    between atoms: C_10  and  O_12
REMARK    8  A    between atoms: C_13  and  C_14
REMARK    9  A    between atoms: C_14  and  C_15
REMARK   10  A    between atoms: C_14  and  O_16
REMARK                            x       y       z     vdW  Elec       q    Type
REMARK                         _______ _______ _______ _____ _____    ______ ____
ROOT
ATOM      1  N   UNL     1      14.141  12.613 -12.092  0.00  0.00    +0.000 N 
ENDROOT
BRANCH   1   6
ATOM      2  C   UNL     1      13.184   7.166 -13.750  0.00  0.00    +0.000 C 
ATOM      3  C   UNL     1      13.441   8.585 -13.343  0.00  0.00    +0.000 A 
ATOM      4  C   UNL     1      14.644   8.950 -12.749  0.00  0.00    +0.000 A 
ATOM      5  C   UNL     1      14.868  10.275 -12.341  0.00  0.00    +0.000 A 
ATOM      6  C   UNL     1      13.903  11.289 -12.483  0.00  0.00    +0.000 A 
ATOM      7  C   UNL     1      12.700  10.884 -13.090  0.00  0.00    +0.000 A 
ATOM      8  C   UNL     1      12.464   9.563 -13.504  0.00  0.00    +0.000 A 
ENDBRANCH   1   6
BRANCH   1   9
ATOM      9  C   UNL     1      13.086  13.381 -11.389  0.00  0.00    +0.000 C 
BRANCH   9  10
ATOM     10  C   UNL     1      13.088  13.141  -9.859  0.00  0.00    +0.000 C 
ATOM     11  C   UNL     1      11.720  13.442  -9.258  0.00  0.00    +0.000 C 
BRANCH  10  12
ATOM     12  O   UNL     1      13.418  11.779  -9.552  0.00  0.00    +0.000 OA
ATOM     13  H   UNL     1      12.982  11.545  -8.716  0.00  0.00    +0.000 HD
ENDBRANCH  10  12
ENDBRANCH   9  10
ENDBRANCH   1   9
BRANCH   1  14
ATOM     14  C   UNL     1      15.169  13.442 -12.771  0.00  0.00    +0.000 C 
BRANCH  14  15
ATOM     15  C   UNL     1      16.520  13.432 -12.017  0.00  0.00    +0.000 C 
ATOM     16  C   UNL     1      16.360  13.378 -10.502  0.00  0.00    +0.000 C 
BRANCH  15  17
ATOM     17  O   UNL     1      17.338  12.332 -12.414  0.00  0.00    +0.000 OA
ATOM     18  H   UNL     1      18.182  12.735 -12.701  0.00  0.00    +0.000 HD
ENDBRANCH  15  17
ENDBRANCH  14  15
ENDBRANCH   1  14
TORSDOF 7
ENDMDL
