MODEL 1
REMARK VINA RESULT:    -4.724      0.000      0.000
REMARK INTER + INTRA:          -5.183
REMARK INTER:                  -5.139
REMARK INTRA:                  -0.044
REMARK UNBOUND:                -0.044
REMARK  Name = 
REMARK  3 active torsions:
REMARK  status: ('A' for Active; 'I' for Inactive)
REMARK    1  A    between atoms: C_1  and  O_2
REMARK    2  A    between atoms: O_2  and  C_3
REMARK    3  A    between atoms: C_8  and  O_9
REMARK                            x       y       z     vdW  Elec       q    Type
REMARK                         _______ _______ _______ _____ _____    ______ ____
ROOT
ATOM      1  C   UNL     1      -2.032  -8.405  -4.750  0.00  0.00    +0.000 A 
ATOM      2  C   UNL     1      -2.631  -8.132  -3.521  0.00  0.00    +0.000 A 
ATOM      3  C   UNL     1      -4.004  -7.864  -3.457  0.00  0.00    +0.000 A 
ATOM      4  C   UNL     1      -4.781  -7.868  -4.617  0.00  0.00    +0.000 A 
ATOM      5  C   UNL     1      -4.190  -8.140  -5.848  0.00  0.00    +0.000 A 
ATOM      6  C   UNL     1      -2.827  -8.404  -5.903  0.00  0.00    +0.000 A 
ENDROOT
BRANCH   1   8
ATOM      7  C   UNL     1       0.230  -7.925  -4.203  0.00  0.00    +0.000 C 
ATOM      8  O   UNL     1      -0.705  -8.682  -4.962  0.00  0.00    +0.000 OA
ENDBRANCH   1   8
BRANCH   6   9
ATOM      9  O   UNL     1      -2.269  -8.669  -7.125  0.00  0.00    +0.000 OA
ATOM     10  H   UNL     1      -3.013  -8.619  -7.754  0.00  0.00    +0.000 HD
ENDBRANCH   6   9
TORSDOF 2
ENDMDL
MODEL 2
REMARK VINA RESULT:    -4.580      2.011      3.374
REMARK INTER + INTRA:          -5.026
REMARK INTER:                  -4.973
REMARK INTRA:                  -0.052
REMARK UNBOUND:                -0.044
REMARK  Name = 
REMARK  3 active torsions:
REMARK  status: ('A' for Active; 'I' for Inactive)
REMARK    1  A    between atoms: C_1  and  O_2
REMARK    2  A    between atoms: O_2  and  C_3
REMARK    3  A    between atoms: C_8  and  O_9
REMARK                            x       y       z     vdW  Elec       q    Type
REMARK                         _______ _______ _______ _____ _____    ______ ____
ROOT
ATOM      1  C   UNL     1      -3.653  -7.237  -4.442  0.00  0.00    +0.000 A 
ATOM      2  C   UNL     1      -4.192  -6.968  -5.699  0.00  0.00    +0.000 A 
ATOM      3  C   UNL     1      -3.631  -7.554  -6.841  0.00  0.00    +0.000 A 
ATOM      4  C   UNL     1      -2.532  -8.408  -6.731  0.00  0.00    +0.000 A 
ATOM      5  C   UNL     1      -1.988  -8.682  -5.478  0.00  0.00    +0.000 A 
ATOM      6  C   UNL     1      -2.551  -8.097  -4.352  0.00  0.00    +0.000 A 
ENDROOT
BRANCH   1   8
ATOM      7  C   UNL     1      -4.024  -5.325  -3.081  0.00  0.00    +0.000 C 
ATOM      8  O   UNL     1      -4.097  -6.736  -3.245  0.00  0.00    +0.000 OA
ENDBRANCH   1   8
BRANCH   6   9
ATOM      9  O   UNL     1      -1.999  -8.381  -3.131  0.00  0.00    +0.000 OA
ATOM     10  H   UNL     1      -1.571  -9.251  -3.249  0.00  0.00    +0.000 HD
ENDBRANCH   6   9
TORSDOF 2
ENDMDL
MODEL 3
REMARK VINA RESULT:    -4.144     25.393     26.509
REMARK INTER + INTRA:          -4.552
REMARK INTER:                  -4.499
REMARK INTRA:                  -0.052
REMARK UNBOUND:                -0.044
REMARK  Name = 
REMARK  3 active torsions:
REMARK  status: ('A' for Active; 'I' for Inactive)
REMARK    1  A    between atoms: C_1  and  O_2
REMARK    2  A    between atoms: O_2  and  C_3
REMARK    3  A    between atoms: C_8  and  O_9
REMARK                            x       y       z     vdW  Elec       q    Type
REMARK                         _______ _______ _______ _____ _____    ______ ____
ROOT
ATOM      1  C   UNL     1      12.737  12.067 -12.748  0.00  0.00    +0.000 A 
ATOM      2  C   UNL     1      13.997  12.579 -12.444  0.00  0.00    +0.000 A 
ATOM      3  C   UNL     1      15.097  11.719 -12.346  0.00  0.00    +0.000 A 
ATOM      4  C   UNL     1      14.942  10.346 -12.549  0.00  0.00    +0.000 A 
ATOM      5  C   UNL     1      13.686   9.826 -12.854  0.00  0.00    +0.000 A 
ATOM      6  C   UNL     1      12.601  10.688 -12.949  0.00  0.00    +0.000 A 
ENDROOT
BRANCH   1   8
ATOM      7  C   UNL     1      11.105  13.442 -11.702  0.00  0.00    +0.000 C 
ATOM      8  O   UNL     1      11.577  12.788 -12.874  0.00  0.00    +0.000 OA
ENDBRANCH   1   8
BRANCH   6   9
ATOM      9  O   UNL     1      11.376  10.153 -13.249  0.00  0.00    +0.000 OA
ATOM     10  H   UNL     1      11.539   9.576 -14.019  0.00  0.00    +0.000 HD
ENDBRANCH   6   9
TORSDOF 2
ENDMDL
MODEL 4
REMARK VINA RESULT:    -3.850     25.061     26.642
REMARK INTER + INTRA:          -4.232
REMARK INTER:                  -4.180
REMARK INTRA:                  -0.053
REMARK UNBOUND:                -0.044
REMARK  Name = 
REMARK  3 active torsions:
REMARK  status: ('A' for Active; 'I' for Inactive)
REMARK    1  A    between atoms: C_1  and  O_2
REMARK    2  A    between atoms: O_2  and  C_3
REMARK    3  A    between atoms: C_8  and  O_9
REMARK                            x       y       z     vdW  Elec       q    Type
REMARK                         _______ _______ _______ _____ _____    ______ ____
ROOT
ATOM      1  C   UNL     1      13.902  10.334 -12.473  0.00  0.00    +0.000 A 
ATOM      2  C   UNL     1      15.291  10.386 -12.370  0.00  0.00    +0.000 A 
ATOM      3  C   UNL     1      15.948  11.624 -12.377  0.00  0.00    +0.000 A 
ATOM      4  C   UNL     1      15.220  12.810 -12.488  0.00  0.00    +0.000 A 
ATOM      5  C   UNL     1      13.832  12.766 -12.591  0.00  0.00    +0.000 A 
ATOM      6  C   UNL     1      13.189  11.535 -12.583  0.00  0.00    +0.000 A 
ENDROOT
BRANCH   1   8
ATOM      7  C   UNL     1      13.282   8.337 -13.601  0.00  0.00    +0.000 C 
ATOM      8  O   UNL     1      13.131   9.200 -12.480  0.00  0.00    +0.000 OA
ENDBRANCH   1   8
BRANCH   6   9
ATOM      9  O   UNL     1      11.824  11.517 -12.686  0.00  0.00    +0.000 OA
ATOM     10  H   UNL     1      11.604  10.593 -12.912  0.00  0.00    +0.000 HD
ENDBRANCH   6   9
TORSDOF 2
ENDMDL
MODEL 5
REMARK VINA RESULT:    -3.814      1.431      2.368
REMARK INTER + INTRA:          -4.192
REMARK INTER:                  -4.150
REMARK INTRA:                  -0.043
REMARK UNBOUND:                -0.044
REMARK  Name = 
REMARK  3 active torsions:
REMARK  status: ('A' for Active; 'I' for Inactive)
REMARK    1  A    between atoms: C_1  and  O_2
REMARK    2  A    between atoms: O_2  and  C_3
REMARK    3  A    between atoms: C_8  and  O_9
REMARK                            x       y       z     vdW  Elec       q    Type
REMARK                         _______ _______ _______ _____ _____    ______ ____
ROOT
ATOM      1  C   UNL     1      -2.058  -8.654  -4.706  0.00  0.00    +0.000 A 
ATOM      2  C   UNL     1      -1.982  -8.630  -6.098  0.00  0.00    +0.000 A 
ATOM      3  C   UNL     1      -3.155  -8.610  -6.863  0.00  0.00    +0.000 A 
ATOM      4  C   UNL     1      -4.405  -8.615  -6.241  0.00  0.00    +0.000 A 
ATOM      5  C   UNL     1      -4.490  -8.639  -4.851  0.00  0.00    +0.000 A 
ATOM      6  C   UNL     1      -3.321  -8.659  -4.101  0.00  0.00    +0.000 A 
ENDROOT
BRANCH   1   8
ATOM      7  C   UNL     1       0.150  -7.926  -4.215  0.00  0.00    +0.000 C 
ATOM      8  O   UNL     1      -0.998  -8.676  -3.836  0.00  0.00    +0.000 OA
ENDBRANCH   1   8
BRANCH   6   9
ATOM      9  O   UNL     1      -3.429  -8.682  -2.736  0.00  0.00    +0.000 OA
ATOM     10  H   UNL     1      -4.390  -8.677  -2.563  0.00  0.00    +0.000 HD
ENDBRANCH   6   9
TORSDOF 2
ENDMDL
MODEL 6
REMARK VINA RESULT:    -3.587      2.441      3.364
REMARK INTER + INTRA:          -3.946
REMARK INTER:                  -3.909
REMARK INTRA:                  -0.037
REMARK UNBOUND:                -0.044
REMARK  Name = 
REMARK  3 active torsions:
REMARK  status: ('A' for Active; 'I' for Inactive)
REMARK    1  A    between atoms: C_1  and  O_2
REMARK    2  A    between atoms: O_2  and  C_3
REMARK    3  A    between atoms: C_8  and  O_9
REMARK                            x       y       z     vdW  Elec       q    Type
REMARK                         _______ _______ _______ _____ _____    ______ ____
ROOT
ATOM      1  C   UNL     1      -4.032  -7.010  -5.388  0.00  0.00    +0.000 A 
ATOM      2  C   UNL     1      -3.966  -8.340  -4.975  0.00  0.00    +0.000 A 
ATOM      3  C   UNL     1      -4.306  -8.682  -3.660  0.00  0.00    +0.000 A 
ATOM      4  C   UNL     1      -4.711  -7.699  -2.756  0.00  0.00    +0.000 A 
ATOM      5  C   UNL     1      -4.779  -6.368  -3.161  0.00  0.00    +0.000 A 
ATOM      6  C   UNL     1      -4.440  -6.038  -4.467  0.00  0.00    +0.000 A 
ENDROOT
BRANCH   1   8
ATOM      7  C   UNL     1      -3.267  -7.488  -7.587  0.00  0.00    +0.000 C 
ATOM      8  O   UNL     1      -3.730  -6.533  -6.639  0.00  0.00    +0.000 OA
ENDBRANCH   1   8
BRANCH   6   9
ATOM      9  O   UNL     1      -4.515  -4.723  -4.842  0.00  0.00    +0.000 OA
ATOM     10  H   UNL     1      -3.923  -4.254  -4.224  0.00  0.00    +0.000 HD
ENDBRANCH   6   9
TORSDOF 2
ENDMDL
MODEL 7
REMARK VINA RESULT:    -3.234      1.299      2.771
REMARK INTER + INTRA:          -3.562
REMARK INTER:                  -3.583
REMARK INTRA:                   0.021
REMARK UNBOUND:                -0.044
REMARK  Name = 
REMARK  3 active torsions:
REMARK  status: ('A' for Active; 'I' for Inactive)
REMARK    1  A    between atoms: C_1  and  O_2
REMARK    2  A    between atoms: O_2  and  C_3
REMARK    3  A    between atoms: C_8  and  O_9
REMARK                            x       y       z     vdW  Elec       q    Type
REMARK                         _______ _______ _______ _____ _____    ______ ____
ROOT
ATOM      1  C   UNL     1      -3.490  -7.590  -5.562  0.00  0.00    +0.000 A 
ATOM      2  C   UNL     1      -4.605  -7.219  -4.812  0.00  0.00    +0.000 A 
ATOM      3  C   UNL     1      -4.680  -7.559  -3.456  0.00  0.00    +0.000 A 
ATOM      4  C   UNL     1      -3.644  -8.269  -2.845  0.00  0.00    +0.000 A 
ATOM      5  C   UNL     1      -2.526  -8.642  -3.588  0.00  0.00    +0.000 A 
ATOM      6  C   UNL     1      -2.461  -8.301  -4.933  0.00  0.00    +0.000 A 
ENDROOT
BRANCH   1   8
ATOM      7  C   UNL     1      -3.831  -8.259  -7.817  0.00  0.00    +0.000 C 
ATOM      8  O   UNL     1      -3.283  -7.326  -6.893  0.00  0.00    +0.000 OA
ENDBRANCH   1   8
BRANCH   6   9
ATOM      9  O   UNL     1      -1.352  -8.679  -5.642  0.00  0.00    +0.000 OA
ATOM     10  H   UNL     1      -1.315  -8.058  -6.395  0.00  0.00    +0.000 HD
ENDBRANCH   6   9
TORSDOF 2
ENDMDL
MODEL 8
REMARK VINA RESULT:    -2.831     26.613     27.066
REMARK INTER + INTRA:          -3.124
REMARK INTER:                  -3.082
REMARK INTRA:                  -0.041
REMARK UNBOUND:                -0.044
REMARK  Name = 
REMARK  3 active torsions:
REMARK  status: ('A' for Active; 'I' for Inactive)
REMARK    1  A    between atoms: C_1  and  O_2
REMARK    2  A    between atoms: O_2  and  C_3
REMARK    3  A    between atoms: C_8  and  O_9
REMARK                            x       y       z     vdW  Elec       q    Type
REMARK                         _______ _______ _______ _____ _____    ______ ____
ROOT
ATOM      1  C   UNL     1      15.257  11.399 -10.853  0.00  0.00    +0.000 A 
ATOM      2  C   UNL     1      15.177  10.379 -11.801  0.00  0.00    +0.000 A 
ATOM      3  C   UNL     1      14.121  10.359 -12.721  0.00  0.00    +0.000 A 
ATOM      4  C   UNL     1      13.143  11.355 -12.696  0.00  0.00    +0.000 A 
ATOM      5  C   UNL     1      13.215  12.377 -11.753  0.00  0.00    +0.000 A 
ATOM      6  C   UNL     1      14.266  12.389 -10.845  0.00  0.00    +0.000 A 
ENDROOT
BRANCH   1   8
ATOM      7  C   UNL     1      16.815  10.345  -9.402  0.00  0.00    +0.000 C 
ATOM      8  O   UNL     1      16.229  11.543  -9.897  0.00  0.00    +0.000 OA
ENDBRANCH   1   8
BRANCH   6   9
ATOM      9  O   UNL     1      14.316  13.404  -9.927  0.00  0.00    +0.000 OA
ATOM     10  H   UNL     1      14.317  12.955  -9.060  0.00  0.00    +0.000 HD
ENDBRANCH   6   9
TORSDOF 2
ENDMDL
MODEL 9
REMARK VINA RESULT:    -2.821      1.695      3.231
REMARK INTER + INTRA:          -3.112
REMARK INTER:                  -3.067
REMARK INTRA:                  -0.045
REMARK UNBOUND:                -0.044
REMARK  Name = 
REMARK  3 active torsions:
REMARK  status: ('A' for Active; 'I' for Inactive)
REMARK    1  A    between atoms: C_1  and  O_2
REMARK    2  A    between atoms: O_2  and  C_3
REMARK    3  A    between atoms: C_8  and  O_9
REMARK                            x       y       z     vdW  Elec       q    Type
REMARK                         _______ _______ _______ _____ _____    ______ ____
ROOT
ATOM      1  C   UNL     1      -2.699  -8.417  -5.782  0.00  0.00    +0.000 A 
ATOM      2  C   UNL     1      -1.324  -8.634  -5.697  0.00  0.00    +0.000 A 
ATOM      3  C   UNL     1      -0.700  -8.682  -4.444  0.00  0.00    +0.000 A 
ATOM      4  C   UNL     1      -1.445  -8.514  -3.275  0.00  0.00    +0.000 A 
ATOM      5  C   UNL     1      -2.819  -8.298  -3.352  0.00  0.00    +0.000 A 
ATOM      6  C   UNL     1      -3.430  -8.251  -4.599  0.00  0.00    +0.000 A 
ENDROOT
BRANCH   1   8
ATOM      7  C   UNL     1      -3.290  -7.163  -7.712  0.00  0.00    +0.000 C 
ATOM      8  O   UNL     1      -3.439  -8.345  -6.935  0.00  0.00    +0.000 OA
ENDBRANCH   1   8
BRANCH   6   9
ATOM      9  O   UNL     1      -4.781  -8.037  -4.649  0.00  0.00    +0.000 OA
ATOM     10  H   UNL     1      -4.948  -7.346  -3.980  0.00  0.00    +0.000 HD
ENDBRANCH   6   9
TORSDOF 2
ENDMDL
