MODEL 1
REMARK VINA RESULT:    -4.720      0.000      0.000
REMARK INTER + INTRA:          -5.179
REMARK INTER:                  -5.134
REMARK INTRA:                  -0.046
REMARK UNBOUND:                -0.046
REMARK  Name = 
REMARK  3 active torsions:
REMARK  status: ('A' for Active; 'I' for Inactive)
REMARK    1  A    between atoms: C_1  and  O_2
REMARK    2  A    between atoms: O_2  and  C_3
REMARK    3  A    between atoms: C_8  and  O_9
REMARK                            x       y       z     vdW  Elec       q    Type
REMARK                         _______ _______ _______ _____ _____    ______ ____
ROOT
ATOM      1  C   UNL     1      -2.031  -8.403  -4.724  0.00  0.00    +0.000 A 
ATOM      2  C   UNL     1      -2.643  -8.127  -3.502  0.00  0.00    +0.000 A 
ATOM      3  C   UNL     1      -4.017  -7.857  -3.453  0.00  0.00    +0.000 A 
ATOM      4  C   UNL     1      -4.781  -7.861  -4.621  0.00  0.00    +0.000 A 
ATOM      5  C   UNL     1      -4.177  -8.136  -5.845  0.00  0.00    +0.000 A 
ATOM      6  C   UNL     1      -2.814  -8.402  -5.885  0.00  0.00    +0.000 A 
ENDROOT
BRANCH   1   8
ATOM      7  C   UNL     1       0.228  -7.876  -4.208  0.00  0.00    +0.000 C 
ATOM      8  O   UNL     1      -0.703  -8.682  -4.921  0.00  0.00    +0.000 OA
ENDBRANCH   1   8
BRANCH   6   9
ATOM      9  O   UNL     1      -2.243  -8.670  -7.100  0.00  0.00    +0.000 OA
ATOM     10  H   UNL     1      -1.932  -9.592  -7.031  0.00  0.00    +0.000 HD
ENDBRANCH   6   9
TORSDOF 2
ENDMDL
MODEL 2
REMARK VINA RESULT:    -4.595      1.996      3.353
REMARK INTER + INTRA:          -5.043
REMARK INTER:                  -4.992
REMARK INTRA:                  -0.051
REMARK UNBOUND:                -0.046
REMARK  Name = 
REMARK  3 active torsions:
REMARK  status: ('A' for Active; 'I' for Inactive)
REMARK    1  A    between atoms: C_1  and  O_2
REMARK    2  A    between atoms: O_2  and  C_3
REMARK    3  A    between atoms: C_8  and  O_9
REMARK                            x       y       z     vdW  Elec       q    Type
REMARK                         _______ _______ _______ _____ _____    ______ ____
ROOT
ATOM      1  C   UNL     1      -3.613  -7.220  -4.425  0.00  0.00    +0.000 A 
ATOM      2  C   UNL     1      -4.168  -6.933  -5.672  0.00  0.00    +0.000 A 
ATOM      3  C   UNL     1      -3.635  -7.518  -6.827  0.00  0.00    +0.000 A 
ATOM      4  C   UNL     1      -2.547  -8.390  -6.741  0.00  0.00    +0.000 A 
ATOM      5  C   UNL     1      -1.988  -8.682  -5.500  0.00  0.00    +0.000 A 
ATOM      6  C   UNL     1      -2.523  -8.097  -4.359  0.00  0.00    +0.000 A 
ENDROOT
BRANCH   1   8
ATOM      7  C   UNL     1      -4.032  -5.305  -3.083  0.00  0.00    +0.000 C 
ATOM      8  O   UNL     1      -4.029  -6.721  -3.217  0.00  0.00    +0.000 OA
ENDBRANCH   1   8
BRANCH   6   9
ATOM      9  O   UNL     1      -1.955  -8.399  -3.150  0.00  0.00    +0.000 OA
ATOM     10  H   UNL     1      -1.142  -7.860  -3.116  0.00  0.00    +0.000 HD
ENDBRANCH   6   9
TORSDOF 2
ENDMDL
MODEL 3
REMARK VINA RESULT:    -4.531      1.406      2.358
REMARK INTER + INTRA:          -4.974
REMARK INTER:                  -4.931
REMARK INTRA:                  -0.043
REMARK UNBOUND:                -0.046
REMARK  Name = 
REMARK  3 active torsions:
REMARK  status: ('A' for Active; 'I' for Inactive)
REMARK    1  A    between atoms: C_1  and  O_2
REMARK    2  A    between atoms: O_2  and  C_3
REMARK    3  A    between atoms: C_8  and  O_9
REMARK                            x       y       z     vdW  Elec       q    Type
REMARK                         _______ _______ _______ _____ _____    ______ ____
ROOT
ATOM      1  C   UNL     1      -2.043  -8.644  -4.740  0.00  0.00    +0.000 A 
ATOM      2  C   UNL     1      -1.981  -8.609  -6.132  0.00  0.00    +0.000 A 
ATOM      3  C   UNL     1      -3.162  -8.578  -6.884  0.00  0.00    +0.000 A 
ATOM      4  C   UNL     1      -4.406  -8.584  -6.249  0.00  0.00    +0.000 A 
ATOM      5  C   UNL     1      -4.475  -8.618  -4.858  0.00  0.00    +0.000 A 
ATOM      6  C   UNL     1      -3.299  -8.648  -4.121  0.00  0.00    +0.000 A 
ENDROOT
BRANCH   1   8
ATOM      7  C   UNL     1       0.174  -7.928  -4.267  0.00  0.00    +0.000 C 
ATOM      8  O   UNL     1      -0.973  -8.677  -3.881  0.00  0.00    +0.000 OA
ENDBRANCH   1   8
BRANCH   6   9
ATOM      9  O   UNL     1      -3.392  -8.682  -2.755  0.00  0.00    +0.000 OA
ATOM     10  H   UNL     1      -2.468  -8.732  -2.444  0.00  0.00    +0.000 HD
ENDBRANCH   6   9
TORSDOF 2
ENDMDL
MODEL 4
REMARK VINA RESULT:    -4.100     25.457     26.585
REMARK INTER + INTRA:          -4.505
REMARK INTER:                  -4.453
REMARK INTRA:                  -0.052
REMARK UNBOUND:                -0.046
REMARK  Name = 
REMARK  3 active torsions:
REMARK  status: ('A' for Active; 'I' for Inactive)
REMARK    1  A    between atoms: C_1  and  O_2
REMARK    2  A    between atoms: O_2  and  C_3
REMARK    3  A    between atoms: C_8  and  O_9
REMARK                            x       y       z     vdW  Elec       q    Type
REMARK                         _______ _______ _______ _____ _____    ______ ____
ROOT
ATOM      1  C   UNL     1      12.836  12.057 -12.760  0.00  0.00    +0.000 A 
ATOM      2  C   UNL     1      14.068  12.634 -12.457  0.00  0.00    +0.000 A 
ATOM      3  C   UNL     1      15.202  11.825 -12.308  0.00  0.00    +0.000 A 
ATOM      4  C   UNL     1      15.109  10.441 -12.460  0.00  0.00    +0.000 A 
ATOM      5  C   UNL     1      13.881   9.857 -12.764  0.00  0.00    +0.000 A 
ATOM      6  C   UNL     1      12.762  10.666 -12.910  0.00  0.00    +0.000 A 
ENDROOT
BRANCH   1   8
ATOM      7  C   UNL     1      11.156  13.443 -11.810  0.00  0.00    +0.000 C 
ATOM      8  O   UNL     1      11.649  12.723 -12.933  0.00  0.00    +0.000 OA
ENDBRANCH   1   8
BRANCH   6   9
ATOM      9  O   UNL     1      11.567  10.069 -13.208  0.00  0.00    +0.000 OA
ATOM     10  H   UNL     1      11.755   9.512 -13.987  0.00  0.00    +0.000 HD
ENDBRANCH   6   9
TORSDOF 2
ENDMDL
MODEL 5
REMARK VINA RESULT:    -3.822     25.089     26.696
REMARK INTER + INTRA:          -4.203
REMARK INTER:                  -4.153
REMARK INTRA:                  -0.050
REMARK UNBOUND:                -0.046
REMARK  Name = 
REMARK  3 active torsions:
REMARK  status: ('A' for Active; 'I' for Inactive)
REMARK    1  A    between atoms: C_1  and  O_2
REMARK    2  A    between atoms: O_2  and  C_3
REMARK    3  A    between atoms: C_8  and  O_9
REMARK                            x       y       z     vdW  Elec       q    Type
REMARK                         _______ _______ _______ _____ _____    ______ ____
ROOT
ATOM      1  C   UNL     1      13.940  10.383 -12.462  0.00  0.00    +0.000 A 
ATOM      2  C   UNL     1      15.332  10.427 -12.389  0.00  0.00    +0.000 A 
ATOM      3  C   UNL     1      15.994  11.661 -12.395  0.00  0.00    +0.000 A 
ATOM      4  C   UNL     1      15.270  12.852 -12.475  0.00  0.00    +0.000 A 
ATOM      5  C   UNL     1      13.880  12.816 -12.547  0.00  0.00    +0.000 A 
ATOM      6  C   UNL     1      13.231  11.588 -12.541  0.00  0.00    +0.000 A 
ENDROOT
BRANCH   1   8
ATOM      7  C   UNL     1      13.200   8.461 -13.648  0.00  0.00    +0.000 C 
ATOM      8  O   UNL     1      13.163   9.252 -12.466  0.00  0.00    +0.000 OA
ENDBRANCH   1   8
BRANCH   6   9
ATOM      9  O   UNL     1      11.864  11.578 -12.613  0.00  0.00    +0.000 OA
ATOM     10  H   UNL     1      11.654  10.868 -13.249  0.00  0.00    +0.000 HD
ENDBRANCH   6   9
TORSDOF 2
ENDMDL
MODEL 6
REMARK VINA RESULT:    -3.799     25.099     26.341
REMARK INTER + INTRA:          -4.178
REMARK INTER:                  -4.139
REMARK INTRA:                  -0.039
REMARK UNBOUND:                -0.046
REMARK  Name = 
REMARK  3 active torsions:
REMARK  status: ('A' for Active; 'I' for Inactive)
REMARK    1  A    between atoms: C_1  and  O_2
REMARK    2  A    between atoms: O_2  and  C_3
REMARK    3  A    between atoms: C_8  and  O_9
REMARK                            x       y       z     vdW  Elec       q    Type
REMARK                         _______ _______ _______ _____ _____    ______ ____
ROOT
ATOM      1  C   UNL     1      14.109  10.925 -12.471  0.00  0.00    +0.000 A 
ATOM      2  C   UNL     1      14.059  12.318 -12.479  0.00  0.00    +0.000 A 
ATOM      3  C   UNL     1      12.864  12.973 -12.802  0.00  0.00    +0.000 A 
ATOM      4  C   UNL     1      11.718  12.240 -13.118  0.00  0.00    +0.000 A 
ATOM      5  C   UNL     1      11.760  10.848 -13.112  0.00  0.00    +0.000 A 
ATOM      6  C   UNL     1      12.950  10.207 -12.790  0.00  0.00    +0.000 A 
ENDROOT
BRANCH   1   8
ATOM      7  C   UNL     1      16.476  10.775 -12.328  0.00  0.00    +0.000 C 
ATOM      8  O   UNL     1      15.205  10.154 -12.176  0.00  0.00    +0.000 OA
ENDBRANCH   1   8
BRANCH   6   9
ATOM      9  O   UNL     1      12.967   8.837 -12.791  0.00  0.00    +0.000 OA
ATOM     10  H   UNL     1      12.682   8.585 -11.892  0.00  0.00    +0.000 HD
ENDBRANCH   6   9
TORSDOF 2
ENDMDL
MODEL 7
REMARK VINA RESULT:    -3.447     25.618     26.783
REMARK INTER + INTRA:          -3.795
REMARK INTER:                  -3.757
REMARK INTRA:                  -0.038
REMARK UNBOUND:                -0.046
REMARK  Name = 
REMARK  3 active torsions:
REMARK  status: ('A' for Active; 'I' for Inactive)
REMARK    1  A    between atoms: C_1  and  O_2
REMARK    2  A    between atoms: O_2  and  C_3
REMARK    3  A    between atoms: C_8  and  O_9
REMARK                            x       y       z     vdW  Elec       q    Type
REMARK                         _______ _______ _______ _____ _____    ______ ____
ROOT
ATOM      1  C   UNL     1      12.714  12.123 -12.813  0.00  0.00    +0.000 A 
ATOM      2  C   UNL     1      12.066  10.923 -13.103  0.00  0.00    +0.000 A 
ATOM      3  C   UNL     1      12.783   9.720 -13.093  0.00  0.00    +0.000 A 
ATOM      4  C   UNL     1      14.146   9.711 -12.793  0.00  0.00    +0.000 A 
ATOM      5  C   UNL     1      14.801  10.906 -12.502  0.00  0.00    +0.000 A 
ATOM      6  C   UNL     1      14.082  12.094 -12.515  0.00  0.00    +0.000 A 
ENDROOT
BRANCH   1   8
ATOM      7  C   UNL     1      10.719  13.413 -12.789  0.00  0.00    +0.000 C 
ATOM      8  O   UNL     1      12.141  13.369 -12.787  0.00  0.00    +0.000 OA
ENDBRANCH   1   8
BRANCH   6   9
ATOM      9  O   UNL     1      14.747  13.255 -12.225  0.00  0.00    +0.000 OA
ATOM     10  H   UNL     1      15.015  13.162 -11.291  0.00  0.00    +0.000 HD
ENDBRANCH   6   9
TORSDOF 2
ENDMDL
MODEL 8
REMARK VINA RESULT:    -3.433      2.079      3.137
REMARK INTER + INTRA:          -3.780
REMARK INTER:                  -3.733
REMARK INTRA:                  -0.047
REMARK UNBOUND:                -0.046
REMARK  Name = 
REMARK  3 active torsions:
REMARK  status: ('A' for Active; 'I' for Inactive)
REMARK    1  A    between atoms: C_1  and  O_2
REMARK    2  A    between atoms: O_2  and  C_3
REMARK    3  A    between atoms: C_8  and  O_9
REMARK                            x       y       z     vdW  Elec       q    Type
REMARK                         _______ _______ _______ _____ _____    ______ ____
ROOT
ATOM      1  C   UNL     1      -3.408  -7.438  -4.148  0.00  0.00    +0.000 A 
ATOM      2  C   UNL     1      -2.157  -7.430  -3.532  0.00  0.00    +0.000 A 
ATOM      3  C   UNL     1      -1.066  -8.046  -4.158  0.00  0.00    +0.000 A 
ATOM      4  C   UNL     1      -1.220  -8.671  -5.397  0.00  0.00    +0.000 A 
ATOM      5  C   UNL     1      -2.466  -8.682  -6.019  0.00  0.00    +0.000 A 
ATOM      6  C   UNL     1      -3.543  -8.069  -5.391  0.00  0.00    +0.000 A 
ENDROOT
BRANCH   1   8
ATOM      7  C   UNL     1      -4.637  -5.458  -3.684  0.00  0.00    +0.000 C 
ATOM      8  O   UNL     1      -4.559  -6.878  -3.654  0.00  0.00    +0.000 OA
ENDBRANCH   1   8
BRANCH   6   9
ATOM      9  O   UNL     1      -4.759  -8.094  -6.022  0.00  0.00    +0.000 OA
ATOM     10  H   UNL     1      -5.411  -7.955  -5.309  0.00  0.00    +0.000 HD
ENDBRANCH   6   9
TORSDOF 2
ENDMDL
