MODEL 1
REMARK VINA RESULT:    -4.402      0.000      0.000
REMARK INTER + INTRA:          -6.239
REMARK INTER:                  -5.946
REMARK INTRA:                  -0.294
REMARK UNBOUND:                -0.294
REMARK  Name = 
REMARK  10 active torsions:
REMARK  status: ('A' for Active; 'I' for Inactive)
REMARK    1  A    between atoms: C_1  and  C_2
REMARK    2  A    between atoms: C_5  and  N_8
REMARK    3  A    between atoms: N_8  and  C_9
REMARK    4  A    between atoms: N_8  and  C_13
REMARK    5  A    between atoms: C_9  and  C_10
REMARK    6  A    between atoms: C_10  and  C_11
REMARK    7  A    between atoms: C_10  and  O_12
REMARK    8  A    between atoms: C_13  and  C_14
REMARK    9  A    between atoms: C_14  and  C_15
REMARK   10  A    between atoms: C_14  and  O_16
REMARK                            x       y       z     vdW  Elec       q    Type
REMARK                         _______ _______ _______ _____ _____    ______ ____
ROOT
ATOM      1  N   UNL     1      -2.224  -7.618  -4.283  0.00  0.00    +0.000 N 
ENDROOT
BRANCH   1   6
ATOM      2  C   UNL     1       3.534  -7.440  -3.910  0.00  0.00    +0.000 C 
ATOM      3  C   UNL     1       2.041  -7.477  -4.030  0.00  0.00    +0.000 A 
ATOM      4  C   UNL     1       1.264  -6.403  -3.609  0.00  0.00    +0.000 A 
ATOM      5  C   UNL     1      -0.137  -6.455  -3.696  0.00  0.00    +0.000 A 
ATOM      6  C   UNL     1      -0.828  -7.581  -4.180  0.00  0.00    +0.000 A 
ATOM      7  C   UNL     1      -0.010  -8.647  -4.598  0.00  0.00    +0.000 A 
ATOM      8  C   UNL     1       1.391  -8.607  -4.518  0.00  0.00    +0.000 A 
ENDBRANCH   1   6
BRANCH   1   9
ATOM      9  C   UNL     1      -3.063  -6.962  -3.251  0.00  0.00    +0.000 C 
BRANCH   9  10
ATOM     10  C   UNL     1      -3.572  -5.567  -3.690  0.00  0.00    +0.000 C 
ATOM     11  C   UNL     1      -4.759  -5.694  -4.638  0.00  0.00    +0.000 C 
BRANCH  10  12
ATOM     12  O   UNL     1      -3.989  -4.792  -2.558  0.00  0.00    +0.000 OA
ATOM     13  H   UNL     1      -4.736  -5.250  -2.137  0.00  0.00    +0.000 HD
ENDBRANCH  10  12
ENDBRANCH   9  10
ENDBRANCH   1   9
BRANCH   1  14
ATOM     14  C   UNL     1      -2.910  -8.682  -5.061  0.00  0.00    +0.000 C 
BRANCH  14  15
ATOM     15  C   UNL     1      -2.927  -8.377  -6.578  0.00  0.00    +0.000 C 
ATOM     16  C   UNL     1      -4.268  -8.679  -7.235  0.00  0.00    +0.000 C 
BRANCH  15  17
ATOM     17  O   UNL     1      -2.601  -7.013  -6.845  0.00  0.00    +0.000 OA
ATOM     18  H   UNL     1      -1.811  -6.830  -6.298  0.00  0.00    +0.000 HD
ENDBRANCH  15  17
ENDBRANCH  14  15
ENDBRANCH   1  14
TORSDOF 7
ENDMDL
MODEL 2
REMARK VINA RESULT:    -2.797      0.710      2.804
REMARK INTER + INTRA:          -4.071
REMARK INTER:                  -5.441
REMARK INTRA:                   1.370
REMARK UNBOUND:                -0.294
REMARK  Name = 
REMARK  10 active torsions:
REMARK  status: ('A' for Active; 'I' for Inactive)
REMARK    1  A    between atoms: C_1  and  C_2
REMARK    2  A    between atoms: C_5  and  N_8
REMARK    3  A    between atoms: N_8  and  C_9
REMARK    4  A    between atoms: N_8  and  C_13
REMARK    5  A    between atoms: C_9  and  C_10
REMARK    6  A    between atoms: C_10  and  C_11
REMARK    7  A    between atoms: C_10  and  O_12
REMARK    8  A    between atoms: C_13  and  C_14
REMARK    9  A    between atoms: C_14  and  C_15
REMARK   10  A    between atoms: C_14  and  O_16
REMARK                            x       y       z     vdW  Elec       q    Type
REMARK                         _______ _______ _______ _____ _____    ______ ____
ROOT
ATOM      1  N   UNL     1      -1.946  -7.520  -4.041  0.00  0.00    +0.000 N 
ENDROOT
BRANCH   1   6
ATOM      2  C   UNL     1       3.825  -7.665  -4.060  0.00  0.00    +0.000 C 
ATOM      3  C   UNL     1       2.328  -7.616  -4.077  0.00  0.00    +0.000 A 
ATOM      4  C   UNL     1       1.642  -6.552  -3.502  0.00  0.00    +0.000 A 
ATOM      5  C   UNL     1       0.238  -6.526  -3.495  0.00  0.00    +0.000 A 
ATOM      6  C   UNL     1      -0.546  -7.562  -4.034  0.00  0.00    +0.000 A 
ATOM      7  C   UNL     1       0.181  -8.621  -4.609  0.00  0.00    +0.000 A 
ATOM      8  C   UNL     1       1.586  -8.658  -4.625  0.00  0.00    +0.000 A 
ENDBRANCH   1   6
BRANCH   1   9
ATOM      9  C   UNL     1      -2.722  -8.682  -4.537  0.00  0.00    +0.000 C 
BRANCH   9  10
ATOM     10  C   UNL     1      -2.905  -8.669  -6.074  0.00  0.00    +0.000 C 
ATOM     11  C   UNL     1      -4.383  -8.669  -6.447  0.00  0.00    +0.000 C 
BRANCH  10  12
ATOM     12  O   UNL     1      -2.300  -7.506  -6.655  0.00  0.00    +0.000 OA
ATOM     13  H   UNL     1      -2.526  -7.488  -7.600  0.00  0.00    +0.000 HD
ENDBRANCH  10  12
ENDBRANCH   9  10
ENDBRANCH   1   9
BRANCH   1  14
ATOM     14  C   UNL     1      -2.676  -6.227  -4.060  0.00  0.00    +0.000 C 
BRANCH  14  15
ATOM     15  C   UNL     1      -4.148  -6.381  -3.608  0.00  0.00    +0.000 C 
ATOM     16  C   UNL     1      -4.403  -7.660  -2.820  0.00  0.00    +0.000 C 
BRANCH  15  17
ATOM     17  O   UNL     1      -4.571  -5.278  -2.807  0.00  0.00    +0.000 OA
ATOM     18  H   UNL     1      -5.322  -5.621  -2.281  0.00  0.00    +0.000 HD
ENDBRANCH  15  17
ENDBRANCH  14  15
ENDBRANCH   1  14
TORSDOF 7
ENDMDL
MODEL 3
REMARK VINA RESULT:    -2.329     23.483     25.372
REMARK INTER + INTRA:          -3.439
REMARK INTER:                  -3.709
REMARK INTRA:                   0.270
REMARK UNBOUND:                -0.294
REMARK  Name = 
REMARK  10 active torsions:
REMARK  status: ('A' for Active; 'I' for Inactive)
REMARK    1  A    between atoms: C_1  and  C_2
REMARK    2  A    between atoms: C_5  and  N_8
REMARK    3  A    between atoms: N_8  and  C_9
REMARK    4  A    between atoms: N_8  and  C_13
REMARK    5  A    between atoms: C_9  and  C_10
REMARK    6  A    between atoms: C_10  and  C_11
REMARK    7  A    between atoms: C_10  and  O_12
REMARK    8  A    between atoms: C_13  and  C_14
REMARK    9  A    between atoms: C_14  and  C_15
REMARK   10  A    between atoms: C_14  and  O_16
REMARK                            x       y       z     vdW  Elec       q    Type
REMARK                         _______ _______ _______ _____ _____    ______ ____
ROOT
ATOM      1  N   UNL     1      13.564  12.522 -12.279  0.00  0.00    +0.000 N 
ENDROOT
BRANCH   1   6
ATOM      2  C   UNL     1      13.592   6.902 -13.597  0.00  0.00    +0.000 C 
ATOM      3  C   UNL     1      13.594   8.365 -13.277  0.00  0.00    +0.000 A 
ATOM      4  C   UNL     1      14.685   8.958 -12.651  0.00  0.00    +0.000 A 
ATOM      5  C   UNL     1      14.669  10.325 -12.326  0.00  0.00    +0.000 A 
ATOM      6  C   UNL     1      13.565  11.156 -12.587  0.00  0.00    +0.000 A 
ATOM      7  C   UNL     1      12.481  10.524 -13.224  0.00  0.00    +0.000 A 
ATOM      8  C   UNL     1      12.485   9.159 -13.555  0.00  0.00    +0.000 A 
ENDBRANCH   1   6
BRANCH   1   9
ATOM      9  C   UNL     1      12.601  13.434 -12.944  0.00  0.00    +0.000 C 
BRANCH   9  10
ATOM     10  C   UNL     1      11.212  13.442 -12.260  0.00  0.00    +0.000 C 
ATOM     11  C   UNL     1      10.294  12.395 -12.879  0.00  0.00    +0.000 C 
BRANCH  10  12
ATOM     12  O   UNL     1      11.327  13.160 -10.858  0.00  0.00    +0.000 OA
ATOM     13  H   UNL     1      11.668  13.956 -10.418  0.00  0.00    +0.000 HD
ENDBRANCH  10  12
ENDBRANCH   9  10
ENDBRANCH   1   9
BRANCH   1  14
ATOM     14  C   UNL     1      14.771  13.186 -11.724  0.00  0.00    +0.000 C 
BRANCH  14  15
ATOM     15  C   UNL     1      14.957  12.894 -10.215  0.00  0.00    +0.000 C 
ATOM     16  C   UNL     1      16.264  13.442  -9.655  0.00  0.00    +0.000 C 
BRANCH  15  17
ATOM     17  O   UNL     1      13.885  13.428  -9.439  0.00  0.00    +0.000 OA
ATOM     18  H   UNL     1      13.701  14.306  -9.831  0.00  0.00    +0.000 HD
ENDBRANCH  15  17
ENDBRANCH  14  15
ENDBRANCH   1  14
TORSDOF 7
ENDMDL
