MODEL 1
REMARK VINA RESULT:    -2.995      0.000      0.000
REMARK INTER + INTRA:          -4.515
REMARK INTER:                  -4.046
REMARK INTRA:                  -0.470
REMARK UNBOUND:                -0.470
REMARK  Name = 
REMARK  10 active torsions:
REMARK  status: ('A' for Active; 'I' for Inactive)
REMARK    1  A    between atoms: C_1  and  C_2
REMARK    2  A    between atoms: C_5  and  N_8
REMARK    3  A    between atoms: N_8  and  C_9
REMARK    4  A    between atoms: N_8  and  C_13
REMARK    5  A    between atoms: C_9  and  C_10
REMARK    6  A    between atoms: C_10  and  C_11
REMARK    7  A    between atoms: C_10  and  O_12
REMARK    8  A    between atoms: C_13  and  C_14
REMARK    9  A    between atoms: C_14  and  C_15
REMARK   10  A    between atoms: C_14  and  O_16
REMARK                            x       y       z     vdW  Elec       q    Type
REMARK                         _______ _______ _______ _____ _____    ______ ____
ROOT
ATOM      1  N   UNL     1      15.495  11.559 -10.696  0.00  0.00    +0.000 N 
ENDROOT
BRANCH   1   6
ATOM      2  C   UNL     1      10.347  13.222 -12.711  0.00  0.00    +0.000 C 
ATOM      3  C   UNL     1      11.694  12.807 -12.203  0.00  0.00    +0.000 A 
ATOM      4  C   UNL     1      12.380  11.745 -12.783  0.00  0.00    +0.000 A 
ATOM      5  C   UNL     1      13.629  11.341 -12.284  0.00  0.00    +0.000 A 
ATOM      6  C   UNL     1      14.241  11.955 -11.177  0.00  0.00    +0.000 A 
ATOM      7  C   UNL     1      13.520  13.026 -10.617  0.00  0.00    +0.000 A 
ATOM      8  C   UNL     1      12.271  13.442 -11.107  0.00  0.00    +0.000 A 
ENDBRANCH   1   6
BRANCH   1   9
ATOM      9  C   UNL     1      15.596  10.496  -9.667  0.00  0.00    +0.000 C 
BRANCH   9  10
ATOM     10  C   UNL     1      17.060  10.175  -9.278  0.00  0.00    +0.000 C 
ATOM     11  C   UNL     1      17.328  10.537  -7.822  0.00  0.00    +0.000 C 
BRANCH  10  12
ATOM     12  O   UNL     1      17.343   8.779  -9.448  0.00  0.00    +0.000 OA
ATOM     13  H   UNL     1      16.547   8.352  -9.805  0.00  0.00    +0.000 HD
ENDBRANCH  10  12
ENDBRANCH   9  10
ENDBRANCH   1   9
BRANCH   1  14
ATOM     14  C   UNL     1      16.669  12.465 -10.775  0.00  0.00    +0.000 C 
BRANCH  14  15
ATOM     15  C   UNL     1      17.296  12.489 -12.189  0.00  0.00    +0.000 C 
ATOM     16  C   UNL     1      17.329  11.117 -12.854  0.00  0.00    +0.000 C 
BRANCH  15  17
ATOM     17  O   UNL     1      16.604  13.384 -13.058  0.00  0.00    +0.000 OA
ATOM     18  H   UNL     1      17.305  13.824 -13.579  0.00  0.00    +0.000 HD
ENDBRANCH  15  17
ENDBRANCH  14  15
ENDBRANCH   1  14
TORSDOF 7
ENDMDL
MODEL 2
REMARK VINA RESULT:    -2.599     25.423     26.801
REMARK INTER + INTRA:          -3.980
REMARK INTER:                  -5.391
REMARK INTRA:                   1.411
REMARK UNBOUND:                -0.470
REMARK  Name = 
REMARK  10 active torsions:
REMARK  status: ('A' for Active; 'I' for Inactive)
REMARK    1  A    between atoms: C_1  and  C_2
REMARK    2  A    between atoms: C_5  and  N_8
REMARK    3  A    between atoms: N_8  and  C_9
REMARK    4  A    between atoms: N_8  and  C_13
REMARK    5  A    between atoms: C_9  and  C_10
REMARK    6  A    between atoms: C_10  and  C_11
REMARK    7  A    between atoms: C_10  and  O_12
REMARK    8  A    between atoms: C_13  and  C_14
REMARK    9  A    between atoms: C_14  and  C_15
REMARK   10  A    between atoms: C_14  and  O_16
REMARK                            x       y       z     vdW  Elec       q    Type
REMARK                         _______ _______ _______ _____ _____    ______ ____
ROOT
ATOM      1  N   UNL     1      -2.234  -7.463  -4.105  0.00  0.00    +0.000 N 
ENDROOT
BRANCH   1   6
ATOM      2  C   UNL     1       3.537  -7.557  -4.005  0.00  0.00    +0.000 C 
ATOM      3  C   UNL     1       2.039  -7.542  -4.008  0.00  0.00    +0.000 A 
ATOM      4  C   UNL     1       1.315  -8.618  -4.512  0.00  0.00    +0.000 A 
ATOM      5  C   UNL     1      -0.089  -8.586  -4.540  0.00  0.00    +0.000 A 
ATOM      6  C   UNL     1      -0.834  -7.480  -4.092  0.00  0.00    +0.000 A 
ATOM      7  C   UNL     1      -0.069  -6.412  -3.587  0.00  0.00    +0.000 A 
ATOM      8  C   UNL     1       1.335  -6.432  -3.551  0.00  0.00    +0.000 A 
ENDBRANCH   1   6
BRANCH   1   9
ATOM      9  C   UNL     1      -2.988  -8.648  -4.579  0.00  0.00    +0.000 C 
BRANCH   9  10
ATOM     10  C   UNL     1      -3.146  -8.682  -6.119  0.00  0.00    +0.000 C 
ATOM     11  C   UNL     1      -4.616  -8.616  -6.517  0.00  0.00    +0.000 C 
BRANCH  10  12
ATOM     12  O   UNL     1      -2.470  -7.575  -6.730  0.00  0.00    +0.000 OA
ATOM     13  H   UNL     1      -2.054  -7.050  -6.026  0.00  0.00    +0.000 HD
ENDBRANCH  10  12
ENDBRANCH   9  10
ENDBRANCH   1   9
BRANCH   1  14
ATOM     14  C   UNL     1      -2.987  -6.183  -4.154  0.00  0.00    +0.000 C 
BRANCH  14  15
ATOM     15  C   UNL     1      -4.430  -6.333  -3.615  0.00  0.00    +0.000 C 
ATOM     16  C   UNL     1      -4.673  -7.665  -2.915  0.00  0.00    +0.000 C 
BRANCH  15  17
ATOM     17  O   UNL     1      -4.763  -5.287  -2.704  0.00  0.00    +0.000 OA
ATOM     18  H   UNL     1      -5.378  -4.708  -3.197  0.00  0.00    +0.000 HD
ENDBRANCH  15  17
ENDBRANCH  14  15
ENDBRANCH   1  14
TORSDOF 7
ENDMDL
MODEL 3
REMARK VINA RESULT:    -2.547      3.058      5.533
REMARK INTER + INTRA:          -3.911
REMARK INTER:                  -3.409
REMARK INTRA:                  -0.502
REMARK UNBOUND:                -0.470
REMARK  Name = 
REMARK  10 active torsions:
REMARK  status: ('A' for Active; 'I' for Inactive)
REMARK    1  A    between atoms: C_1  and  C_2
REMARK    2  A    between atoms: C_5  and  N_8
REMARK    3  A    between atoms: N_8  and  C_9
REMARK    4  A    between atoms: N_8  and  C_13
REMARK    5  A    between atoms: C_9  and  C_10
REMARK    6  A    between atoms: C_10  and  C_11
REMARK    7  A    between atoms: C_10  and  O_12
REMARK    8  A    between atoms: C_13  and  C_14
REMARK    9  A    between atoms: C_14  and  C_15
REMARK   10  A    between atoms: C_14  and  O_16
REMARK                            x       y       z     vdW  Elec       q    Type
REMARK                         _______ _______ _______ _____ _____    ______ ____
ROOT
ATOM      1  N   UNL     1      13.802  10.568 -12.658  0.00  0.00    +0.000 N 
ENDROOT
BRANCH   1   6
ATOM      2  C   UNL     1      17.326  13.342  -9.023  0.00  0.00    +0.000 C 
ATOM      3  C   UNL     1      16.392  12.632  -9.954  0.00  0.00    +0.000 A 
ATOM      4  C   UNL     1      15.971  11.332  -9.690  0.00  0.00    +0.000 A 
ATOM      5  C   UNL     1      15.119  10.660 -10.582  0.00  0.00    +0.000 A 
ATOM      6  C   UNL     1      14.667  11.237 -11.783  0.00  0.00    +0.000 A 
ATOM      7  C   UNL     1      15.110  12.552 -12.016  0.00  0.00    +0.000 A 
ATOM      8  C   UNL     1      15.961  13.236 -11.131  0.00  0.00    +0.000 A 
ENDBRANCH   1   6
BRANCH   1   9
ATOM      9  C   UNL     1      12.861  11.339 -13.507  0.00  0.00    +0.000 C 
BRANCH   9  10
ATOM     10  C   UNL     1      11.478  11.540 -12.840  0.00  0.00    +0.000 C 
ATOM     11  C   UNL     1      11.088  13.013 -12.831  0.00  0.00    +0.000 C 
BRANCH  10  12
ATOM     12  O   UNL     1      10.459  10.815 -13.540  0.00  0.00    +0.000 OA
ATOM     13  H   UNL     1      10.495  11.072 -14.477  0.00  0.00    +0.000 HD
ENDBRANCH  10  12
ENDBRANCH   9  10
ENDBRANCH   1   9
BRANCH   1  14
ATOM     14  C   UNL     1      13.416   9.152 -12.425  0.00  0.00    +0.000 C 
BRANCH  14  15
ATOM     15  C   UNL     1      13.365   8.337 -13.740  0.00  0.00    +0.000 C 
ATOM     16  C   UNL     1      13.627   6.850 -13.534  0.00  0.00    +0.000 C 
BRANCH  15  17
ATOM     17  O   UNL     1      12.108   8.478 -14.399  0.00  0.00    +0.000 OA
ATOM     18  H   UNL     1      12.326   8.809 -15.293  0.00  0.00    +0.000 HD
ENDBRANCH  15  17
ENDBRANCH  14  15
ENDBRANCH   1  14
TORSDOF 7
ENDMDL
MODEL 4
REMARK VINA RESULT:    -1.498      2.509      3.770
REMARK INTER + INTRA:          -2.493
REMARK INTER:                  -3.738
REMARK INTRA:                   1.245
REMARK UNBOUND:                -0.470
REMARK  Name = 
REMARK  10 active torsions:
REMARK  status: ('A' for Active; 'I' for Inactive)
REMARK    1  A    between atoms: C_1  and  C_2
REMARK    2  A    between atoms: C_5  and  N_8
REMARK    3  A    between atoms: N_8  and  C_9
REMARK    4  A    between atoms: N_8  and  C_13
REMARK    5  A    between atoms: C_9  and  C_10
REMARK    6  A    between atoms: C_10  and  C_11
REMARK    7  A    between atoms: C_10  and  O_12
REMARK    8  A    between atoms: C_13  and  C_14
REMARK    9  A    between atoms: C_14  and  C_15
REMARK   10  A    between atoms: C_14  and  O_16
REMARK                            x       y       z     vdW  Elec       q    Type
REMARK                         _______ _______ _______ _____ _____    ______ ____
ROOT
ATOM      1  N   UNL     1      14.551  10.261 -12.818  0.00  0.00    +0.000 N 
ENDROOT
BRANCH   1   6
ATOM      2  C   UNL     1       9.738  13.442 -12.592  0.00  0.00    +0.000 C 
ATOM      3  C   UNL     1      10.981  12.606 -12.628  0.00  0.00    +0.000 A 
ATOM      4  C   UNL     1      12.185  13.096 -12.133  0.00  0.00    +0.000 A 
ATOM      5  C   UNL     1      13.354  12.320 -12.198  0.00  0.00    +0.000 A 
ATOM      6  C   UNL     1      13.386  11.037 -12.775  0.00  0.00    +0.000 A 
ATOM      7  C   UNL     1      12.150  10.574 -13.263  0.00  0.00    +0.000 A 
ATOM      8  C   UNL     1      10.973  11.339 -13.203  0.00  0.00    +0.000 A 
ENDBRANCH   1   6
BRANCH   1   9
ATOM      9  C   UNL     1      14.462   8.783 -12.740  0.00  0.00    +0.000 C 
BRANCH   9  10
ATOM     10  C   UNL     1      13.246   8.213 -13.510  0.00  0.00    +0.000 C 
ATOM     11  C   UNL     1      13.437   8.358 -15.015  0.00  0.00    +0.000 C 
BRANCH  10  12
ATOM     12  O   UNL     1      13.059   6.821 -13.218  0.00  0.00    +0.000 OA
ATOM     13  H   UNL     1      13.916   6.374 -13.319  0.00  0.00    +0.000 HD
ENDBRANCH  10  12
ENDBRANCH   9  10
ENDBRANCH   1   9
BRANCH   1  14
ATOM     14  C   UNL     1      15.868  10.829 -12.433  0.00  0.00    +0.000 C 
BRANCH  14  15
ATOM     15  C   UNL     1      16.109  10.763 -10.905  0.00  0.00    +0.000 C 
ATOM     16  C   UNL     1      17.270   9.854 -10.520  0.00  0.00    +0.000 C 
BRANCH  15  17
ATOM     17  O   UNL     1      16.357  12.055 -10.354  0.00  0.00    +0.000 OA
ATOM     18  H   UNL     1      15.824  12.669 -10.898  0.00  0.00    +0.000 HD
ENDBRANCH  15  17
ENDBRANCH  14  15
ENDBRANCH   1  14
TORSDOF 7
ENDMDL
MODEL 5
REMARK VINA RESULT:    -0.226      2.685      5.376
REMARK INTER + INTRA:          -0.775
REMARK INTER:                  -1.525
REMARK INTRA:                   0.750
REMARK UNBOUND:                -0.470
REMARK  Name = 
REMARK  10 active torsions:
REMARK  status: ('A' for Active; 'I' for Inactive)
REMARK    1  A    between atoms: C_1  and  C_2
REMARK    2  A    between atoms: C_5  and  N_8
REMARK    3  A    between atoms: N_8  and  C_9
REMARK    4  A    between atoms: N_8  and  C_13
REMARK    5  A    between atoms: C_9  and  C_10
REMARK    6  A    between atoms: C_10  and  C_11
REMARK    7  A    between atoms: C_10  and  O_12
REMARK    8  A    between atoms: C_13  and  C_14
REMARK    9  A    between atoms: C_14  and  C_15
REMARK   10  A    between atoms: C_14  and  O_16
REMARK                            x       y       z     vdW  Elec       q    Type
REMARK                         _______ _______ _______ _____ _____    ______ ____
ROOT
ATOM      1  N   UNL     1      13.558  12.138 -12.549  0.00  0.00    +0.000 N 
ENDROOT
BRANCH   1   6
ATOM      2  C   UNL     1      17.343  11.482  -8.240  0.00  0.00    +0.000 C 
ATOM      3  C   UNL     1      16.342  11.653  -9.341  0.00  0.00    +0.000 A 
ATOM      4  C   UNL     1      15.774  10.549  -9.968  0.00  0.00    +0.000 A 
ATOM      5  C   UNL     1      14.859  10.715 -11.020  0.00  0.00    +0.000 A 
ATOM      6  C   UNL     1      14.486  11.979 -11.512  0.00  0.00    +0.000 A 
ATOM      7  C   UNL     1      15.078  13.073 -10.853  0.00  0.00    +0.000 A 
ATOM      8  C   UNL     1      15.993  12.920  -9.798  0.00  0.00    +0.000 A 
ENDBRANCH   1   6
BRANCH   1   9
ATOM      9  C   UNL     1      12.423  13.080 -12.393  0.00  0.00    +0.000 C 
BRANCH   9  10
ATOM     10  C   UNL     1      11.617  12.839 -11.094  0.00  0.00    +0.000 C 
ATOM     11  C   UNL     1      12.330  13.442  -9.889  0.00  0.00    +0.000 C 
BRANCH  10  12
ATOM     12  O   UNL     1      10.312  13.429 -11.180  0.00  0.00    +0.000 OA
ATOM     13  H   UNL     1      10.406  14.387 -11.047  0.00  0.00    +0.000 HD
ENDBRANCH  10  12
ENDBRANCH   9  10
ENDBRANCH   1   9
BRANCH   1  14
ATOM     14  C   UNL     1      13.352  11.076 -13.566  0.00  0.00    +0.000 C 
BRANCH  14  15
ATOM     15  C   UNL     1      12.242  10.079 -13.153  0.00  0.00    +0.000 C 
ATOM     16  C   UNL     1      10.944  10.273 -13.928  0.00  0.00    +0.000 C 
BRANCH  15  17
ATOM     17  O   UNL     1      12.660   8.725 -13.322  0.00  0.00    +0.000 OA
ATOM     18  H   UNL     1      12.013   8.337 -13.945  0.00  0.00    +0.000 HD
ENDBRANCH  15  17
ENDBRANCH  14  15
ENDBRANCH   1  14
TORSDOF 7
ENDMDL
