MODEL 1
REMARK VINA RESULT:    -4.192      0.000      0.000
REMARK INTER + INTRA:          -5.798
REMARK INTER:                  -5.662
REMARK INTRA:                  -0.136
REMARK UNBOUND:                -0.136
REMARK  Name = 
REMARK  10 active torsions:
REMARK  status: ('A' for Active; 'I' for Inactive)
REMARK    1  A    between atoms: C_1  and  C_2
REMARK    2  A    between atoms: C_5  and  N_8
REMARK    3  A    between atoms: N_8  and  C_9
REMARK    4  A    between atoms: N_8  and  C_13
REMARK    5  A    between atoms: C_9  and  C_10
REMARK    6  A    between atoms: C_10  and  C_11
REMARK    7  A    between atoms: C_10  and  O_12
REMARK    8  A    between atoms: C_13  and  C_14
REMARK    9  A    between atoms: C_14  and  C_15
REMARK   10  A    between atoms: C_14  and  O_16
REMARK                            x       y       z     vdW  Elec       q    Type
REMARK                         _______ _______ _______ _____ _____    ______ ____
ROOT
ATOM      1  N   UNL     1      -2.389  -7.658  -4.329  0.00  0.00    +0.000 N 
ENDROOT
BRANCH   1   6
ATOM      2  C   UNL     1       3.372  -7.484  -4.008  0.00  0.00    +0.000 C 
ATOM      3  C   UNL     1       1.876  -7.539  -4.069  0.00  0.00    +0.000 A 
ATOM      4  C   UNL     1       1.224  -8.635  -4.625  0.00  0.00    +0.000 A 
ATOM      5  C   UNL     1      -0.178  -8.668  -4.706  0.00  0.00    +0.000 A 
ATOM      6  C   UNL     1      -0.991  -7.610  -4.263  0.00  0.00    +0.000 A 
ATOM      7  C   UNL     1      -0.298  -6.520  -3.704  0.00  0.00    +0.000 A 
ATOM      8  C   UNL     1       1.103  -6.475  -3.615  0.00  0.00    +0.000 A 
ENDBRANCH   1   6
BRANCH   1   9
ATOM      9  C   UNL     1      -3.206  -7.112  -3.218  0.00  0.00    +0.000 C 
BRANCH   9  10
ATOM     10  C   UNL     1      -4.097  -5.924  -3.655  0.00  0.00    +0.000 C 
ATOM     11  C   UNL     1      -3.582  -4.613  -3.073  0.00  0.00    +0.000 C 
BRANCH  10  12
ATOM     12  O   UNL     1      -4.120  -5.796  -5.084  0.00  0.00    +0.000 OA
ATOM     13  H   UNL     1      -4.879  -5.240  -5.325  0.00  0.00    +0.000 HD
ENDBRANCH  10  12
ENDBRANCH   9  10
ENDBRANCH   1   9
BRANCH   1  14
ATOM     14  C   UNL     1      -3.084  -8.654  -5.184  0.00  0.00    +0.000 C 
BRANCH  14  15
ATOM     15  C   UNL     1      -2.885  -8.370  -6.692  0.00  0.00    +0.000 C 
ATOM     16  C   UNL     1      -4.120  -8.682  -7.529  0.00  0.00    +0.000 C 
BRANCH  15  17
ATOM     17  O   UNL     1      -2.522  -7.011  -6.929  0.00  0.00    +0.000 OA
ATOM     18  H   UNL     1      -2.238  -6.669  -6.058  0.00  0.00    +0.000 HD
ENDBRANCH  15  17
ENDBRANCH  14  15
ENDBRANCH   1  14
TORSDOF 7
ENDMDL
MODEL 2
REMARK VINA RESULT:    -2.418     23.615     25.558
REMARK INTER + INTRA:          -3.402
REMARK INTER:                  -2.916
REMARK INTRA:                  -0.486
REMARK UNBOUND:                -0.136
REMARK  Name = 
REMARK  10 active torsions:
REMARK  status: ('A' for Active; 'I' for Inactive)
REMARK    1  A    between atoms: C_1  and  C_2
REMARK    2  A    between atoms: C_5  and  N_8
REMARK    3  A    between atoms: N_8  and  C_9
REMARK    4  A    between atoms: N_8  and  C_13
REMARK    5  A    between atoms: C_9  and  C_10
REMARK    6  A    between atoms: C_10  and  C_11
REMARK    7  A    between atoms: C_10  and  O_12
REMARK    8  A    between atoms: C_13  and  C_14
REMARK    9  A    between atoms: C_14  and  C_15
REMARK   10  A    between atoms: C_14  and  O_16
REMARK                            x       y       z     vdW  Elec       q    Type
REMARK                         _______ _______ _______ _____ _____    ______ ____
ROOT
ATOM      1  N   UNL     1      14.197  12.181 -12.242  0.00  0.00    +0.000 N 
ENDROOT
BRANCH   1   6
ATOM      2  C   UNL     1      13.553   6.613 -13.623  0.00  0.00    +0.000 C 
ATOM      3  C   UNL     1      13.730   8.062 -13.287  0.00  0.00    +0.000 A 
ATOM      4  C   UNL     1      14.880   8.512 -12.647  0.00  0.00    +0.000 A 
ATOM      5  C   UNL     1      15.028   9.866 -12.308  0.00  0.00    +0.000 A 
ATOM      6  C   UNL     1      14.035  10.829 -12.565  0.00  0.00    +0.000 A 
ATOM      7  C   UNL     1      12.887  10.339 -13.215  0.00  0.00    +0.000 A 
ATOM      8  C   UNL     1      12.727   8.988 -13.562  0.00  0.00    +0.000 A 
ENDBRANCH   1   6
BRANCH   1   9
ATOM      9  C   UNL     1      13.259  13.193 -12.783  0.00  0.00    +0.000 C 
BRANCH   9  10
ATOM     10  C   UNL     1      12.044  13.443 -11.855  0.00  0.00    +0.000 C 
ATOM     11  C   UNL     1      10.743  13.050 -12.543  0.00  0.00    +0.000 C 
BRANCH  10  12
ATOM     12  O   UNL     1      12.156  12.679 -10.646  0.00  0.00    +0.000 OA
ATOM     13  H   UNL     1      11.688  13.159  -9.942  0.00  0.00    +0.000 HD
ENDBRANCH  10  12
ENDBRANCH   9  10
ENDBRANCH   1   9
BRANCH   1  14
ATOM     14  C   UNL     1      15.516  12.718 -11.817  0.00  0.00    +0.000 C 
BRANCH  14  15
ATOM     15  C   UNL     1      15.685  12.700 -10.278  0.00  0.00    +0.000 C 
ATOM     16  C   UNL     1      17.005  13.306  -9.814  0.00  0.00    +0.000 C 
BRANCH  15  17
ATOM     17  O   UNL     1      14.625  13.396  -9.624  0.00  0.00    +0.000 OA
ATOM     18  H   UNL     1      14.953  13.559  -8.716  0.00  0.00    +0.000 HD
ENDBRANCH  15  17
ENDBRANCH  14  15
ENDBRANCH   1  14
TORSDOF 7
ENDMDL
MODEL 3
REMARK VINA RESULT:    -2.361     23.634     25.674
REMARK INTER + INTRA:          -3.325
REMARK INTER:                  -3.492
REMARK INTRA:                   0.166
REMARK UNBOUND:                -0.136
REMARK  Name = 
REMARK  10 active torsions:
REMARK  status: ('A' for Active; 'I' for Inactive)
REMARK    1  A    between atoms: C_1  and  C_2
REMARK    2  A    between atoms: C_5  and  N_8
REMARK    3  A    between atoms: N_8  and  C_9
REMARK    4  A    between atoms: N_8  and  C_13
REMARK    5  A    between atoms: C_9  and  C_10
REMARK    6  A    between atoms: C_10  and  C_11
REMARK    7  A    between atoms: C_10  and  O_12
REMARK    8  A    between atoms: C_13  and  C_14
REMARK    9  A    between atoms: C_14  and  C_15
REMARK   10  A    between atoms: C_14  and  O_16
REMARK                            x       y       z     vdW  Elec       q    Type
REMARK                         _______ _______ _______ _____ _____    ______ ____
ROOT
ATOM      1  N   UNL     1      14.800  12.396 -11.759  0.00  0.00    +0.000 N 
ENDROOT
BRANCH   1   6
ATOM      2  C   UNL     1      13.267   7.174 -13.685  0.00  0.00    +0.000 C 
ATOM      3  C   UNL     1      13.657   8.523 -13.162  0.00  0.00    +0.000 A 
ATOM      4  C   UNL     1      12.766   9.590 -13.203  0.00  0.00    +0.000 A 
ATOM      5  C   UNL     1      13.147  10.860 -12.739  0.00  0.00    +0.000 A 
ATOM      6  C   UNL     1      14.433  11.132 -12.238  0.00  0.00    +0.000 A 
ATOM      7  C   UNL     1      15.306  10.030 -12.209  0.00  0.00    +0.000 A 
ATOM      8  C   UNL     1      14.937   8.755 -12.667  0.00  0.00    +0.000 A 
ENDBRANCH   1   6
BRANCH   1   9
ATOM      9  C   UNL     1      16.081  12.573 -11.033  0.00  0.00    +0.000 C 
BRANCH   9  10
ATOM     10  C   UNL     1      15.983  12.178  -9.539  0.00  0.00    +0.000 C 
ATOM     11  C   UNL     1      17.204  11.374  -9.107  0.00  0.00    +0.000 C 
BRANCH  10  12
ATOM     12  O   UNL     1      15.898  13.340  -8.703  0.00  0.00    +0.000 OA
ATOM     13  H   UNL     1      15.939  13.050  -7.777  0.00  0.00    +0.000 HD
ENDBRANCH  10  12
ENDBRANCH   9  10
ENDBRANCH   1   9
BRANCH   1  14
ATOM     14  C   UNL     1      13.780  13.443 -11.490  0.00  0.00    +0.000 C 
BRANCH  14  15
ATOM     15  C   UNL     1      12.576  12.893 -10.688  0.00  0.00    +0.000 C 
ATOM     16  C   UNL     1      12.529  13.403  -9.252  0.00  0.00    +0.000 C 
BRANCH  15  17
ATOM     17  O   UNL     1      11.335  13.216 -11.312  0.00  0.00    +0.000 OA
ATOM     18  H   UNL     1      11.580  13.591 -12.182  0.00  0.00    +0.000 HD
ENDBRANCH  15  17
ENDBRANCH  14  15
ENDBRANCH   1  14
TORSDOF 7
ENDMDL
