MODEL 1
REMARK VINA RESULT:    -3.089      0.000      0.000
REMARK INTER + INTRA:          -3.413
REMARK INTER:                  -3.360
REMARK INTRA:                  -0.052
REMARK UNBOUND:                -0.052
REMARK  Name = 
REMARK  3 active torsions:
REMARK  status: ('A' for Active; 'I' for Inactive)
REMARK    1  A    between atoms: C_1  and  O_2
REMARK    2  A    between atoms: O_2  and  C_3
REMARK    3  A    between atoms: C_8  and  O_9
REMARK                            x       y       z     vdW  Elec       q    Type
REMARK                         _______ _______ _______ _____ _____    ______ ____
ROOT
ATOM      1  C   UNL     1     -42.859 -22.126  -2.489  0.00  0.00    +0.000 A 
ATOM      2  C   UNL     1     -44.086 -21.541  -2.180  0.00  0.00    +0.000 A 
ATOM      3  C   UNL     1     -44.132 -20.229  -1.692  0.00  0.00    +0.000 A 
ATOM      4  C   UNL     1     -42.956 -19.499  -1.511  0.00  0.00    +0.000 A 
ATOM      5  C   UNL     1     -41.726 -20.076  -1.818  0.00  0.00    +0.000 A 
ATOM      6  C   UNL     1     -41.690 -21.378  -2.301  0.00  0.00    +0.000 A 
ENDROOT
BRANCH   1   8
ATOM      7  C   UNL     1     -43.069 -24.465  -2.125  0.00  0.00    +0.000 C 
ATOM      8  O   UNL     1     -42.664 -23.395  -2.971  0.00  0.00    +0.000 OA
ENDBRANCH   1   8
BRANCH   6   9
ATOM      9  O   UNL     1     -40.469 -21.925  -2.596  0.00  0.00    +0.000 OA
ATOM     10  H   UNL     1     -39.979 -21.908  -1.751  0.00  0.00    +0.000 HD
ENDBRANCH   6   9
TORSDOF 2
ENDMDL
MODEL 2
REMARK VINA RESULT:    -3.043     14.111     15.211
REMARK INTER + INTRA:          -3.362
REMARK INTER:                  -3.311
REMARK INTRA:                  -0.051
REMARK UNBOUND:                -0.052
REMARK  Name = 
REMARK  3 active torsions:
REMARK  status: ('A' for Active; 'I' for Inactive)
REMARK    1  A    between atoms: C_1  and  O_2
REMARK    2  A    between atoms: O_2  and  C_3
REMARK    3  A    between atoms: C_8  and  O_9
REMARK                            x       y       z     vdW  Elec       q    Type
REMARK                         _______ _______ _______ _____ _____    ______ ____
ROOT
ATOM      1  C   UNL     1     -29.281 -29.005   0.110  0.00  0.00    +0.000 A 
ATOM      2  C   UNL     1     -28.117 -29.029  -0.656  0.00  0.00    +0.000 A 
ATOM      3  C   UNL     1     -27.931 -28.087  -1.676  0.00  0.00    +0.000 A 
ATOM      4  C   UNL     1     -28.906 -27.121  -1.934  0.00  0.00    +0.000 A 
ATOM      5  C   UNL     1     -30.072 -27.091  -1.172  0.00  0.00    +0.000 A 
ATOM      6  C   UNL     1     -30.248 -28.030  -0.163  0.00  0.00    +0.000 A 
ENDROOT
BRANCH   1   8
ATOM      7  C   UNL     1     -29.900 -31.203   0.770  0.00  0.00    +0.000 C 
ATOM      8  O   UNL     1     -29.595 -29.862   1.135  0.00  0.00    +0.000 OA
ENDBRANCH   1   8
BRANCH   6   9
ATOM      9  O   UNL     1     -31.402 -27.980   0.572  0.00  0.00    +0.000 OA
ATOM     10  H   UNL     1     -31.522 -28.889   0.909  0.00  0.00    +0.000 HD
ENDBRANCH   6   9
TORSDOF 2
ENDMDL
MODEL 3
REMARK VINA RESULT:    -2.985     12.388     13.708
REMARK INTER + INTRA:          -3.300
REMARK INTER:                  -3.251
REMARK INTRA:                  -0.049
REMARK UNBOUND:                -0.052
REMARK  Name = 
REMARK  3 active torsions:
REMARK  status: ('A' for Active; 'I' for Inactive)
REMARK    1  A    between atoms: C_1  and  O_2
REMARK    2  A    between atoms: O_2  and  C_3
REMARK    3  A    between atoms: C_8  and  O_9
REMARK                            x       y       z     vdW  Elec       q    Type
REMARK                         _______ _______ _______ _____ _____    ______ ____
ROOT
ATOM      1  C   UNL     1     -41.487 -13.944   9.206  0.00  0.00    +0.000 A 
ATOM      2  C   UNL     1     -40.575 -12.894   9.108  0.00  0.00    +0.000 A 
ATOM      3  C   UNL     1     -40.379 -12.250   7.880  0.00  0.00    +0.000 A 
ATOM      4  C   UNL     1     -41.090 -12.653   6.748  0.00  0.00    +0.000 A 
ATOM      5  C   UNL     1     -42.003 -13.701   6.838  0.00  0.00    +0.000 A 
ATOM      6  C   UNL     1     -42.191 -14.334   8.060  0.00  0.00    +0.000 A 
ENDROOT
BRANCH   1   8
ATOM      7  C   UNL     1     -42.537 -13.989  11.338  0.00  0.00    +0.000 C 
ATOM      8  O   UNL     1     -41.779 -14.661  10.338  0.00  0.00    +0.000 OA
ENDBRANCH   1   8
BRANCH   6   9
ATOM      9  O   UNL     1     -43.094 -15.361   8.124  0.00  0.00    +0.000 OA
ATOM     10  H   UNL     1     -43.965 -14.934   8.016  0.00  0.00    +0.000 HD
ENDBRANCH   6   9
TORSDOF 2
ENDMDL
MODEL 4
REMARK VINA RESULT:    -2.976      1.269      3.056
REMARK INTER + INTRA:          -3.289
REMARK INTER:                  -3.249
REMARK INTRA:                  -0.040
REMARK UNBOUND:                -0.052
REMARK  Name = 
REMARK  3 active torsions:
REMARK  status: ('A' for Active; 'I' for Inactive)
REMARK    1  A    between atoms: C_1  and  O_2
REMARK    2  A    between atoms: O_2  and  C_3
REMARK    3  A    between atoms: C_8  and  O_9
REMARK                            x       y       z     vdW  Elec       q    Type
REMARK                         _______ _______ _______ _____ _____    ______ ____
ROOT
ATOM      1  C   UNL     1     -42.439 -20.663  -2.153  0.00  0.00    +0.000 A 
ATOM      2  C   UNL     1     -43.830 -20.562  -2.129  0.00  0.00    +0.000 A 
ATOM      3  C   UNL     1     -44.617 -21.680  -2.435  0.00  0.00    +0.000 A 
ATOM      4  C   UNL     1     -44.020 -22.897  -2.766  0.00  0.00    +0.000 A 
ATOM      5  C   UNL     1     -42.631 -23.005  -2.792  0.00  0.00    +0.000 A 
ATOM      6  C   UNL     1     -41.858 -21.892  -2.487  0.00  0.00    +0.000 A 
ENDROOT
BRANCH   1   8
ATOM      7  C   UNL     1     -41.991 -18.647  -0.978  0.00  0.00    +0.000 C 
ATOM      8  O   UNL     1     -41.549 -19.656  -1.877  0.00  0.00    +0.000 OA
ENDBRANCH   1   8
BRANCH   6   9
ATOM      9  O   UNL     1     -40.496 -22.023  -2.519  0.00  0.00    +0.000 OA
ATOM     10  H   UNL     1     -40.262 -22.404  -1.651  0.00  0.00    +0.000 HD
ENDBRANCH   6   9
TORSDOF 2
ENDMDL
MODEL 5
REMARK VINA RESULT:    -2.970     12.797     14.038
REMARK INTER + INTRA:          -3.283
REMARK INTER:                  -3.240
REMARK INTRA:                  -0.044
REMARK UNBOUND:                -0.052
REMARK  Name = 
REMARK  3 active torsions:
REMARK  status: ('A' for Active; 'I' for Inactive)
REMARK    1  A    between atoms: C_1  and  O_2
REMARK    2  A    between atoms: O_2  and  C_3
REMARK    3  A    between atoms: C_8  and  O_9
REMARK                            x       y       z     vdW  Elec       q    Type
REMARK                         _______ _______ _______ _____ _____    ______ ____
ROOT
ATOM      1  C   UNL     1     -29.732 -24.969  -2.845  0.00  0.00    +0.000 A 
ATOM      2  C   UNL     1     -28.862 -26.038  -3.053  0.00  0.00    +0.000 A 
ATOM      3  C   UNL     1     -27.665 -26.118  -2.330  0.00  0.00    +0.000 A 
ATOM      4  C   UNL     1     -27.334 -25.131  -1.399  0.00  0.00    +0.000 A 
ATOM      5  C   UNL     1     -28.198 -24.060  -1.185  0.00  0.00    +0.000 A 
ATOM      6  C   UNL     1     -29.382 -23.989  -1.907  0.00  0.00    +0.000 A 
ENDROOT
BRANCH   1   8
ATOM      7  C   UNL     1     -30.988 -25.110  -4.857  0.00  0.00    +0.000 C 
ATOM      8  O   UNL     1     -30.931 -24.763  -3.479  0.00  0.00    +0.000 OA
ENDBRANCH   1   8
BRANCH   6   9
ATOM      9  O   UNL     1     -30.215 -22.926  -1.680  0.00  0.00    +0.000 OA
ATOM     10  H   UNL     1     -30.628 -22.744  -2.545  0.00  0.00    +0.000 HD
ENDBRANCH   6   9
TORSDOF 2
ENDMDL
MODEL 6
REMARK VINA RESULT:    -2.964     13.479     14.620
REMARK INTER + INTRA:          -3.277
REMARK INTER:                  -3.237
REMARK INTRA:                  -0.039
REMARK UNBOUND:                -0.052
REMARK  Name = 
REMARK  3 active torsions:
REMARK  status: ('A' for Active; 'I' for Inactive)
REMARK    1  A    between atoms: C_1  and  O_2
REMARK    2  A    between atoms: O_2  and  C_3
REMARK    3  A    between atoms: C_8  and  O_9
REMARK                            x       y       z     vdW  Elec       q    Type
REMARK                         _______ _______ _______ _____ _____    ______ ____
ROOT
ATOM      1  C   UNL     1     -41.238 -13.032   8.939  0.00  0.00    +0.000 A 
ATOM      2  C   UNL     1     -41.097 -12.034   9.903  0.00  0.00    +0.000 A 
ATOM      3  C   UNL     1     -41.612 -12.226  11.191  0.00  0.00    +0.000 A 
ATOM      4  C   UNL     1     -42.269 -13.413  11.520  0.00  0.00    +0.000 A 
ATOM      5  C   UNL     1     -42.414 -14.415  10.563  0.00  0.00    +0.000 A 
ATOM      6  C   UNL     1     -41.900 -14.215   9.288  0.00  0.00    +0.000 A 
ENDROOT
BRANCH   1   8
ATOM      7  C   UNL     1     -39.704 -12.093   7.386  0.00  0.00    +0.000 C 
ATOM      8  O   UNL     1     -40.786 -12.979   7.645  0.00  0.00    +0.000 OA
ENDBRANCH   1   8
BRANCH   6   9
ATOM      9  O   UNL     1     -42.054 -15.215   8.364  0.00  0.00    +0.000 OA
ATOM     10  H   UNL     1     -42.646 -15.861   8.795  0.00  0.00    +0.000 HD
ENDBRANCH   6   9
TORSDOF 2
ENDMDL
MODEL 7
REMARK VINA RESULT:    -2.937     14.025     15.313
REMARK INTER + INTRA:          -3.247
REMARK INTER:                  -3.203
REMARK INTRA:                  -0.043
REMARK UNBOUND:                -0.052
REMARK  Name = 
REMARK  3 active torsions:
REMARK  status: ('A' for Active; 'I' for Inactive)
REMARK    1  A    between atoms: C_1  and  O_2
REMARK    2  A    between atoms: O_2  and  C_3
REMARK    3  A    between atoms: C_8  and  O_9
REMARK                            x       y       z     vdW  Elec       q    Type
REMARK                         _______ _______ _______ _____ _____    ______ ____
ROOT
ATOM      1  C   UNL     1     -29.411 -27.661  -1.040  0.00  0.00    +0.000 A 
ATOM      2  C   UNL     1     -28.135 -28.107  -1.383  0.00  0.00    +0.000 A 
ATOM      3  C   UNL     1     -27.557 -29.176  -0.687  0.00  0.00    +0.000 A 
ATOM      4  C   UNL     1     -28.250 -29.801   0.351  0.00  0.00    +0.000 A 
ATOM      5  C   UNL     1     -29.525 -29.362   0.700  0.00  0.00    +0.000 A 
ATOM      6  C   UNL     1     -30.090 -28.300   0.004  0.00  0.00    +0.000 A 
ENDROOT
BRANCH   1   8
ATOM      7  C   UNL     1     -29.324 -25.504  -2.035  0.00  0.00    +0.000 C 
ATOM      8  O   UNL     1     -30.096 -26.629  -1.632  0.00  0.00    +0.000 OA
ENDBRANCH   1   8
BRANCH   6   9
ATOM      9  O   UNL     1     -31.344 -27.886   0.365  0.00  0.00    +0.000 OA
ATOM     10  H   UNL     1     -31.585 -28.453   1.122  0.00  0.00    +0.000 HD
ENDBRANCH   6   9
TORSDOF 2
ENDMDL
MODEL 8
REMARK VINA RESULT:    -2.896     11.114     12.447
REMARK INTER + INTRA:          -3.202
REMARK INTER:                  -3.163
REMARK INTRA:                  -0.039
REMARK UNBOUND:                -0.052
REMARK  Name = 
REMARK  3 active torsions:
REMARK  status: ('A' for Active; 'I' for Inactive)
REMARK    1  A    between atoms: C_1  and  O_2
REMARK    2  A    between atoms: O_2  and  C_3
REMARK    3  A    between atoms: C_8  and  O_9
REMARK                            x       y       z     vdW  Elec       q    Type
REMARK                         _______ _______ _______ _____ _____    ______ ____
ROOT
ATOM      1  C   UNL     1     -31.116 -25.732  -4.021  0.00  0.00    +0.000 A 
ATOM      2  C   UNL     1     -30.922 -27.087  -4.284  0.00  0.00    +0.000 A 
ATOM      3  C   UNL     1     -31.850 -27.789  -5.064  0.00  0.00    +0.000 A 
ATOM      4  C   UNL     1     -32.973 -27.140  -5.582  0.00  0.00    +0.000 A 
ATOM      5  C   UNL     1     -33.174 -25.786  -5.323  0.00  0.00    +0.000 A 
ATOM      6  C   UNL     1     -32.248 -25.099  -4.549  0.00  0.00    +0.000 A 
ENDROOT
BRANCH   1   8
ATOM      7  C   UNL     1     -29.448 -25.575  -2.335  0.00  0.00    +0.000 C 
ATOM      8  O   UNL     1     -30.294 -24.925  -3.276  0.00  0.00    +0.000 OA
ENDBRANCH   1   8
BRANCH   6   9
ATOM      9  O   UNL     1     -32.467 -23.769  -4.308  0.00  0.00    +0.000 OA
ATOM     10  H   UNL     1     -33.428 -23.649  -4.428  0.00  0.00    +0.000 HD
ENDBRANCH   6   9
TORSDOF 2
ENDMDL
MODEL 9
REMARK VINA RESULT:    -2.882     13.890     15.189
REMARK INTER + INTRA:          -3.187
REMARK INTER:                  -3.137
REMARK INTRA:                  -0.050
REMARK UNBOUND:                -0.052
REMARK  Name = 
REMARK  3 active torsions:
REMARK  status: ('A' for Active; 'I' for Inactive)
REMARK    1  A    between atoms: C_1  and  O_2
REMARK    2  A    between atoms: O_2  and  C_3
REMARK    3  A    between atoms: C_8  and  O_9
REMARK                            x       y       z     vdW  Elec       q    Type
REMARK                         _______ _______ _______ _____ _____    ______ ____
ROOT
ATOM      1  C   UNL     1     -30.556 -29.006  -0.345  0.00  0.00    +0.000 A 
ATOM      2  C   UNL     1     -31.223 -29.860  -1.222  0.00  0.00    +0.000 A 
ATOM      3  C   UNL     1     -31.099 -31.248  -1.076  0.00  0.00    +0.000 A 
ATOM      4  C   UNL     1     -30.311 -31.785  -0.056  0.00  0.00    +0.000 A 
ATOM      5  C   UNL     1     -29.642 -30.937   0.824  0.00  0.00    +0.000 A 
ATOM      6  C   UNL     1     -29.770 -29.562   0.671  0.00  0.00    +0.000 A 
ENDROOT
BRANCH   1   8
ATOM      7  C   UNL     1     -29.892 -27.004  -1.441  0.00  0.00    +0.000 C 
ATOM      8  O   UNL     1     -30.586 -27.634  -0.370  0.00  0.00    +0.000 OA
ENDBRANCH   1   8
BRANCH   6   9
ATOM      9  O   UNL     1     -29.103 -28.750   1.549  0.00  0.00    +0.000 OA
ATOM     10  H   UNL     1     -29.421 -29.022   2.430  0.00  0.00    +0.000 HD
ENDBRANCH   6   9
TORSDOF 2
ENDMDL
