MODEL 1
REMARK VINA RESULT:    -3.996      0.000      0.000
REMARK INTER + INTRA:          -5.968
REMARK INTER:                  -5.398
REMARK INTRA:                  -0.570
REMARK UNBOUND:                -0.570
REMARK  Name = 
REMARK  10 active torsions:
REMARK  status: ('A' for Active; 'I' for Inactive)
REMARK    1  A    between atoms: C_1  and  C_2
REMARK    2  A    between atoms: C_5  and  N_8
REMARK    3  A    between atoms: N_8  and  C_9
REMARK    4  A    between atoms: N_8  and  C_13
REMARK    5  A    between atoms: C_9  and  C_10
REMARK    6  A    between atoms: C_10  and  C_11
REMARK    7  A    between atoms: C_10  and  O_12
REMARK    8  A    between atoms: C_13  and  C_14
REMARK    9  A    between atoms: C_14  and  C_15
REMARK   10  A    between atoms: C_14  and  O_16
REMARK                            x       y       z     vdW  Elec       q    Type
REMARK                         _______ _______ _______ _____ _____    ______ ____
ROOT
ATOM      1  N   UNL     1     -31.527 -25.186  -6.055  0.00  0.00    +0.000 N 
ENDROOT
BRANCH   1   6
ATOM      2  C   UNL     1     -28.609 -27.410  -1.598  0.00  0.00    +0.000 C 
ATOM      3  C   UNL     1     -29.388 -26.841  -2.745  0.00  0.00    +0.000 A 
ATOM      4  C   UNL     1     -29.605 -27.585  -3.899  0.00  0.00    +0.000 A 
ATOM      5  C   UNL     1     -30.310 -27.036  -4.983  0.00  0.00    +0.000 A 
ATOM      6  C   UNL     1     -30.808 -25.721  -4.979  0.00  0.00    +0.000 A 
ATOM      7  C   UNL     1     -30.572 -24.999  -3.795  0.00  0.00    +0.000 A 
ATOM      8  C   UNL     1     -29.870 -25.536  -2.703  0.00  0.00    +0.000 A 
ENDBRANCH   1   6
BRANCH   1   9
ATOM      9  C   UNL     1     -30.835 -24.871  -7.328  0.00  0.00    +0.000 C 
BRANCH   9  10
ATOM     10  C   UNL     1     -29.458 -24.196  -7.111  0.00  0.00    +0.000 C 
ATOM     11  C   UNL     1     -28.341 -25.022  -7.738  0.00  0.00    +0.000 C 
BRANCH  10  12
ATOM     12  O   UNL     1     -29.427 -22.888  -7.699  0.00  0.00    +0.000 OA
ATOM     13  H   UNL     1     -29.932 -22.919  -8.528  0.00  0.00    +0.000 HD
ENDBRANCH  10  12
ENDBRANCH   9  10
ENDBRANCH   1   9
BRANCH   1  14
ATOM     14  C   UNL     1     -32.803 -24.457  -5.842  0.00  0.00    +0.000 C 
BRANCH  14  15
ATOM     15  C   UNL     1     -34.008 -25.418  -5.695  0.00  0.00    +0.000 C 
ATOM     16  C   UNL     1     -33.960 -26.592  -6.666  0.00  0.00    +0.000 C 
BRANCH  15  17
ATOM     17  O   UNL     1     -34.106 -25.943  -4.372  0.00  0.00    +0.000 OA
ATOM     18  H   UNL     1     -34.867 -25.477  -3.971  0.00  0.00    +0.000 HD
ENDBRANCH  15  17
ENDBRANCH  14  15
ENDBRANCH   1  14
TORSDOF 7
ENDMDL
MODEL 2
REMARK VINA RESULT:    -3.936      2.870      4.691
REMARK INTER + INTRA:          -5.886
REMARK INTER:                  -5.498
REMARK INTRA:                  -0.387
REMARK UNBOUND:                -0.570
REMARK  Name = 
REMARK  10 active torsions:
REMARK  status: ('A' for Active; 'I' for Inactive)
REMARK    1  A    between atoms: C_1  and  C_2
REMARK    2  A    between atoms: C_5  and  N_8
REMARK    3  A    between atoms: N_8  and  C_9
REMARK    4  A    between atoms: N_8  and  C_13
REMARK    5  A    between atoms: C_9  and  C_10
REMARK    6  A    between atoms: C_10  and  C_11
REMARK    7  A    between atoms: C_10  and  O_12
REMARK    8  A    between atoms: C_13  and  C_14
REMARK    9  A    between atoms: C_14  and  C_15
REMARK   10  A    between atoms: C_14  and  O_16
REMARK                            x       y       z     vdW  Elec       q    Type
REMARK                         _______ _______ _______ _____ _____    ______ ____
ROOT
ATOM      1  N   UNL     1     -30.295 -26.457  -2.827  0.00  0.00    +0.000 N 
ENDROOT
BRANCH   1   6
ATOM      2  C   UNL     1     -30.286 -31.258   0.380  0.00  0.00    +0.000 C 
ATOM      3  C   UNL     1     -30.313 -30.016  -0.457  0.00  0.00    +0.000 A 
ATOM      4  C   UNL     1     -29.972 -30.056  -1.805  0.00  0.00    +0.000 A 
ATOM      5  C   UNL     1     -29.970 -28.884  -2.578  0.00  0.00    +0.000 A 
ATOM      6  C   UNL     1     -30.281 -27.620  -2.045  0.00  0.00    +0.000 A 
ATOM      7  C   UNL     1     -30.622 -27.617  -0.680  0.00  0.00    +0.000 A 
ATOM      8  C   UNL     1     -30.631 -28.782   0.104  0.00  0.00    +0.000 A 
ENDBRANCH   1   6
BRANCH   1   9
ATOM      9  C   UNL     1     -31.330 -26.278  -3.874  0.00  0.00    +0.000 C 
BRANCH   9  10
ATOM     10  C   UNL     1     -31.241 -24.901  -4.576  0.00  0.00    +0.000 C 
ATOM     11  C   UNL     1     -31.164 -25.064  -6.089  0.00  0.00    +0.000 C 
BRANCH  10  12
ATOM     12  O   UNL     1     -32.389 -24.095  -4.274  0.00  0.00    +0.000 OA
ATOM     13  H   UNL     1     -33.016 -24.640  -3.771  0.00  0.00    +0.000 HD
ENDBRANCH  10  12
ENDBRANCH   9  10
ENDBRANCH   1   9
BRANCH   1  14
ATOM     14  C   UNL     1     -29.067 -25.643  -3.017  0.00  0.00    +0.000 C 
BRANCH  14  15
ATOM     15  C   UNL     1     -28.653 -24.900  -1.724  0.00  0.00    +0.000 C 
ATOM     16  C   UNL     1     -27.246 -24.319  -1.791  0.00  0.00    +0.000 C 
BRANCH  15  17
ATOM     17  O   UNL     1     -29.555 -23.839  -1.414  0.00  0.00    +0.000 OA
ATOM     18  H   UNL     1     -30.164 -24.212  -0.745  0.00  0.00    +0.000 HD
ENDBRANCH  15  17
ENDBRANCH  14  15
ENDBRANCH   1  14
TORSDOF 7
ENDMDL
MODEL 3
REMARK VINA RESULT:    -3.896      2.805      5.159
REMARK INTER + INTRA:          -5.832
REMARK INTER:                  -5.315
REMARK INTRA:                  -0.517
REMARK UNBOUND:                -0.570
REMARK  Name = 
REMARK  10 active torsions:
REMARK  status: ('A' for Active; 'I' for Inactive)
REMARK    1  A    between atoms: C_1  and  C_2
REMARK    2  A    between atoms: C_5  and  N_8
REMARK    3  A    between atoms: N_8  and  C_9
REMARK    4  A    between atoms: N_8  and  C_13
REMARK    5  A    between atoms: C_9  and  C_10
REMARK    6  A    between atoms: C_10  and  C_11
REMARK    7  A    between atoms: C_10  and  O_12
REMARK    8  A    between atoms: C_13  and  C_14
REMARK    9  A    between atoms: C_14  and  C_15
REMARK   10  A    between atoms: C_14  and  O_16
REMARK                            x       y       z     vdW  Elec       q    Type
REMARK                         _______ _______ _______ _____ _____    ______ ____
ROOT
ATOM      1  N   UNL     1     -30.235 -26.504  -3.332  0.00  0.00    +0.000 N 
ENDROOT
BRANCH   1   6
ATOM      2  C   UNL     1     -34.808 -25.106  -6.567  0.00  0.00    +0.000 C 
ATOM      3  C   UNL     1     -33.607 -25.468  -5.748  0.00  0.00    +0.000 A 
ATOM      4  C   UNL     1     -33.272 -26.799  -5.520  0.00  0.00    +0.000 A 
ATOM      5  C   UNL     1     -32.162 -27.132  -4.727  0.00  0.00    +0.000 A 
ATOM      6  C   UNL     1     -31.352 -26.164  -4.106  0.00  0.00    +0.000 A 
ATOM      7  C   UNL     1     -31.719 -24.830  -4.359  0.00  0.00    +0.000 A 
ATOM      8  C   UNL     1     -32.825 -24.483  -5.153  0.00  0.00    +0.000 A 
ENDBRANCH   1   6
BRANCH   1   9
ATOM      9  C   UNL     1     -29.127 -25.534  -3.161  0.00  0.00    +0.000 C 
BRANCH   9  10
ATOM     10  C   UNL     1     -29.055 -24.951  -1.728  0.00  0.00    +0.000 C 
ATOM     11  C   UNL     1     -27.611 -24.690  -1.317  0.00  0.00    +0.000 C 
BRANCH  10  12
ATOM     12  O   UNL     1     -29.773 -23.713  -1.639  0.00  0.00    +0.000 OA
ATOM     13  H   UNL     1     -29.680 -23.375  -0.733  0.00  0.00    +0.000 HD
ENDBRANCH  10  12
ENDBRANCH   9  10
ENDBRANCH   1   9
BRANCH   1  14
ATOM     14  C   UNL     1     -29.864 -27.923  -3.098  0.00  0.00    +0.000 C 
BRANCH  14  15
ATOM     15  C   UNL     1     -30.322 -28.425  -1.707  0.00  0.00    +0.000 C 
ATOM     16  C   UNL     1     -29.199 -28.445  -0.678  0.00  0.00    +0.000 C 
BRANCH  15  17
ATOM     17  O   UNL     1     -31.386 -27.631  -1.185  0.00  0.00    +0.000 OA
ATOM     18  H   UNL     1     -31.839 -27.266  -1.972  0.00  0.00    +0.000 HD
ENDBRANCH  15  17
ENDBRANCH  14  15
ENDBRANCH   1  14
TORSDOF 7
ENDMDL
MODEL 4
REMARK VINA RESULT:    -3.864      2.749      4.327
REMARK INTER + INTRA:          -5.789
REMARK INTER:                  -5.191
REMARK INTRA:                  -0.598
REMARK UNBOUND:                -0.570
REMARK  Name = 
REMARK  10 active torsions:
REMARK  status: ('A' for Active; 'I' for Inactive)
REMARK    1  A    between atoms: C_1  and  C_2
REMARK    2  A    between atoms: C_5  and  N_8
REMARK    3  A    between atoms: N_8  and  C_9
REMARK    4  A    between atoms: N_8  and  C_13
REMARK    5  A    between atoms: C_9  and  C_10
REMARK    6  A    between atoms: C_10  and  C_11
REMARK    7  A    between atoms: C_10  and  O_12
REMARK    8  A    between atoms: C_13  and  C_14
REMARK    9  A    between atoms: C_14  and  C_15
REMARK   10  A    between atoms: C_14  and  O_16
REMARK                            x       y       z     vdW  Elec       q    Type
REMARK                         _______ _______ _______ _____ _____    ______ ____
ROOT
ATOM      1  N   UNL     1     -29.940 -26.691  -3.128  0.00  0.00    +0.000 N 
ENDROOT
BRANCH   1   6
ATOM      2  C   UNL     1     -29.718 -30.771   0.950  0.00  0.00    +0.000 C 
ATOM      3  C   UNL     1     -29.760 -29.699  -0.095  0.00  0.00    +0.000 A 
ATOM      4  C   UNL     1     -30.730 -28.703  -0.057  0.00  0.00    +0.000 A 
ATOM      5  C   UNL     1     -30.783 -27.717  -1.056  0.00  0.00    +0.000 A 
ATOM      6  C   UNL     1     -29.894 -27.689  -2.146  0.00  0.00    +0.000 A 
ATOM      7  C   UNL     1     -28.925 -28.709  -2.150  0.00  0.00    +0.000 A 
ATOM      8  C   UNL     1     -28.860 -29.700  -1.157  0.00  0.00    +0.000 A 
ENDBRANCH   1   6
BRANCH   1   9
ATOM      9  C   UNL     1     -28.945 -25.592  -3.119  0.00  0.00    +0.000 C 
BRANCH   9  10
ATOM     10  C   UNL     1     -28.829 -24.898  -1.740  0.00  0.00    +0.000 C 
ATOM     11  C   UNL     1     -27.409 -24.402  -1.497  0.00  0.00    +0.000 C 
BRANCH  10  12
ATOM     12  O   UNL     1     -29.714 -23.773  -1.654  0.00  0.00    +0.000 OA
ATOM     13  H   UNL     1     -29.506 -23.169  -2.386  0.00  0.00    +0.000 HD
ENDBRANCH  10  12
ENDBRANCH   9  10
ENDBRANCH   1   9
BRANCH   1  14
ATOM     14  C   UNL     1     -31.198 -26.388  -3.857  0.00  0.00    +0.000 C 
BRANCH  14  15
ATOM     15  C   UNL     1     -31.114 -25.055  -4.640  0.00  0.00    +0.000 C 
ATOM     16  C   UNL     1     -31.650 -25.160  -6.062  0.00  0.00    +0.000 C 
BRANCH  15  17
ATOM     17  O   UNL     1     -31.822 -24.009  -3.977  0.00  0.00    +0.000 OA
ATOM     18  H   UNL     1     -32.737 -24.068  -4.319  0.00  0.00    +0.000 HD
ENDBRANCH  15  17
ENDBRANCH  14  15
ENDBRANCH   1  14
TORSDOF 7
ENDMDL
MODEL 5
REMARK VINA RESULT:    -3.861      3.382      5.445
REMARK INTER + INTRA:          -5.785
REMARK INTER:                  -5.143
REMARK INTRA:                  -0.643
REMARK UNBOUND:                -0.570
REMARK  Name = 
REMARK  10 active torsions:
REMARK  status: ('A' for Active; 'I' for Inactive)
REMARK    1  A    between atoms: C_1  and  C_2
REMARK    2  A    between atoms: C_5  and  N_8
REMARK    3  A    between atoms: N_8  and  C_9
REMARK    4  A    between atoms: N_8  and  C_13
REMARK    5  A    between atoms: C_9  and  C_10
REMARK    6  A    between atoms: C_10  and  C_11
REMARK    7  A    between atoms: C_10  and  O_12
REMARK    8  A    between atoms: C_13  and  C_14
REMARK    9  A    between atoms: C_14  and  C_15
REMARK   10  A    between atoms: C_14  and  O_16
REMARK                            x       y       z     vdW  Elec       q    Type
REMARK                         _______ _______ _______ _____ _____    ______ ____
ROOT
ATOM      1  N   UNL     1     -29.359 -26.506  -3.011  0.00  0.00    +0.000 N 
ENDROOT
BRANCH   1   6
ATOM      2  C   UNL     1     -34.289 -25.455  -5.825  0.00  0.00    +0.000 C 
ATOM      3  C   UNL     1     -33.022 -25.728  -5.073  0.00  0.00    +0.000 A 
ATOM      4  C   UNL     1     -32.207 -24.685  -4.645  0.00  0.00    +0.000 A 
ATOM      5  C   UNL     1     -31.006 -24.948  -3.967  0.00  0.00    +0.000 A 
ATOM      6  C   UNL     1     -30.549 -26.252  -3.705  0.00  0.00    +0.000 A 
ATOM      7  C   UNL     1     -31.398 -27.281  -4.151  0.00  0.00    +0.000 A 
ATOM      8  C   UNL     1     -32.604 -27.032  -4.828  0.00  0.00    +0.000 A 
ENDBRANCH   1   6
BRANCH   1   9
ATOM      9  C   UNL     1     -28.134 -25.731  -3.326  0.00  0.00    +0.000 C 
BRANCH   9  10
ATOM     10  C   UNL     1     -27.574 -24.969  -2.100  0.00  0.00    +0.000 C 
ATOM     11  C   UNL     1     -28.691 -24.264  -1.340  0.00  0.00    +0.000 C 
BRANCH  10  12
ATOM     12  O   UNL     1     -26.917 -25.866  -1.193  0.00  0.00    +0.000 OA
ATOM     13  H   UNL     1     -26.561 -25.341  -0.457  0.00  0.00    +0.000 HD
ENDBRANCH  10  12
ENDBRANCH   9  10
ENDBRANCH   1   9
BRANCH   1  14
ATOM     14  C   UNL     1     -29.117 -27.816  -2.353  0.00  0.00    +0.000 C 
BRANCH  14  15
ATOM     15  C   UNL     1     -29.720 -27.875  -0.929  0.00  0.00    +0.000 C 
ATOM     16  C   UNL     1     -30.724 -29.008  -0.749  0.00  0.00    +0.000 C 
BRANCH  15  17
ATOM     17  O   UNL     1     -28.708 -28.020   0.066  0.00  0.00    +0.000 OA
ATOM     18  H   UNL     1     -28.851 -27.274   0.683  0.00  0.00    +0.000 HD
ENDBRANCH  15  17
ENDBRANCH  14  15
ENDBRANCH   1  14
TORSDOF 7
ENDMDL
MODEL 6
REMARK VINA RESULT:    -3.854      2.950      5.975
REMARK INTER + INTRA:          -5.776
REMARK INTER:                  -5.294
REMARK INTRA:                  -0.481
REMARK UNBOUND:                -0.570
REMARK  Name = 
REMARK  10 active torsions:
REMARK  status: ('A' for Active; 'I' for Inactive)
REMARK    1  A    between atoms: C_1  and  C_2
REMARK    2  A    between atoms: C_5  and  N_8
REMARK    3  A    between atoms: N_8  and  C_9
REMARK    4  A    between atoms: N_8  and  C_13
REMARK    5  A    between atoms: C_9  and  C_10
REMARK    6  A    between atoms: C_10  and  C_11
REMARK    7  A    between atoms: C_10  and  O_12
REMARK    8  A    between atoms: C_13  and  C_14
REMARK    9  A    between atoms: C_14  and  C_15
REMARK   10  A    between atoms: C_14  and  O_16
REMARK                            x       y       z     vdW  Elec       q    Type
REMARK                         _______ _______ _______ _____ _____    ______ ____
ROOT
ATOM      1  N   UNL     1     -30.395 -26.571  -3.152  0.00  0.00    +0.000 N 
ENDROOT
BRANCH   1   6
ATOM      2  C   UNL     1     -34.609 -24.872  -6.713  0.00  0.00    +0.000 C 
ATOM      3  C   UNL     1     -33.532 -25.313  -5.770  0.00  0.00    +0.000 A 
ATOM      4  C   UNL     1     -32.712 -24.384  -5.137  0.00  0.00    +0.000 A 
ATOM      5  C   UNL     1     -31.684 -24.804  -4.278  0.00  0.00    +0.000 A 
ATOM      6  C   UNL     1     -31.409 -26.160  -4.026  0.00  0.00    +0.000 A 
ATOM      7  C   UNL     1     -32.258 -27.071  -4.680  0.00  0.00    +0.000 A 
ATOM      8  C   UNL     1     -33.291 -26.664  -5.541  0.00  0.00    +0.000 A 
ENDBRANCH   1   6
BRANCH   1   9
ATOM      9  C   UNL     1     -30.733 -27.340  -1.930  0.00  0.00    +0.000 C 
BRANCH   9  10
ATOM     10  C   UNL     1     -30.534 -28.866  -2.108  0.00  0.00    +0.000 C 
ATOM     11  C   UNL     1     -29.428 -29.381  -1.193  0.00  0.00    +0.000 C 
BRANCH  10  12
ATOM     12  O   UNL     1     -31.737 -29.581  -1.797  0.00  0.00    +0.000 OA
ATOM     13  H   UNL     1     -32.460 -29.196  -2.319  0.00  0.00    +0.000 HD
ENDBRANCH  10  12
ENDBRANCH   9  10
ENDBRANCH   1   9
BRANCH   1  14
ATOM     14  C   UNL     1     -29.088 -25.866  -3.104  0.00  0.00    +0.000 C 
BRANCH  14  15
ATOM     15  C   UNL     1     -28.827 -25.212  -1.726  0.00  0.00    +0.000 C 
ATOM     16  C   UNL     1     -27.352 -24.931  -1.465  0.00  0.00    +0.000 C 
BRANCH  15  17
ATOM     17  O   UNL     1     -29.542 -23.986  -1.580  0.00  0.00    +0.000 OA
ATOM     18  H   UNL     1     -29.648 -23.645  -2.492  0.00  0.00    +0.000 HD
ENDBRANCH  15  17
ENDBRANCH  14  15
ENDBRANCH   1  14
TORSDOF 7
ENDMDL
MODEL 7
REMARK VINA RESULT:    -3.848      3.549      6.269
REMARK INTER + INTRA:          -5.767
REMARK INTER:                  -5.050
REMARK INTRA:                  -0.718
REMARK UNBOUND:                -0.570
REMARK  Name = 
REMARK  10 active torsions:
REMARK  status: ('A' for Active; 'I' for Inactive)
REMARK    1  A    between atoms: C_1  and  C_2
REMARK    2  A    between atoms: C_5  and  N_8
REMARK    3  A    between atoms: N_8  and  C_9
REMARK    4  A    between atoms: N_8  and  C_13
REMARK    5  A    between atoms: C_9  and  C_10
REMARK    6  A    between atoms: C_10  and  C_11
REMARK    7  A    between atoms: C_10  and  O_12
REMARK    8  A    between atoms: C_13  and  C_14
REMARK    9  A    between atoms: C_14  and  C_15
REMARK   10  A    between atoms: C_14  and  O_16
REMARK                            x       y       z     vdW  Elec       q    Type
REMARK                         _______ _______ _______ _____ _____    ______ ____
ROOT
ATOM      1  N   UNL     1     -29.543 -26.670  -2.551  0.00  0.00    +0.000 N 
ENDROOT
BRANCH   1   6
ATOM      2  C   UNL     1     -33.995 -25.226  -5.931  0.00  0.00    +0.000 C 
ATOM      3  C   UNL     1     -32.826 -25.605  -5.074  0.00  0.00    +0.000 A 
ATOM      4  C   UNL     1     -32.668 -26.910  -4.619  0.00  0.00    +0.000 A 
ATOM      5  C   UNL     1     -31.587 -27.253  -3.791  0.00  0.00    +0.000 A 
ATOM      6  C   UNL     1     -30.630 -26.316  -3.360  0.00  0.00    +0.000 A 
ATOM      7  C   UNL     1     -30.820 -25.008  -3.842  0.00  0.00    +0.000 A 
ATOM      8  C   UNL     1     -31.896 -24.652  -4.672  0.00  0.00    +0.000 A 
ENDBRANCH   1   6
BRANCH   1   9
ATOM      9  C   UNL     1     -29.419 -28.055  -2.037  0.00  0.00    +0.000 C 
BRANCH   9  10
ATOM     10  C   UNL     1     -29.675 -28.155  -0.513  0.00  0.00    +0.000 C 
ATOM     11  C   UNL     1     -30.726 -29.215  -0.206  0.00  0.00    +0.000 C 
BRANCH  10  12
ATOM     12  O   UNL     1     -28.474 -28.503   0.189  0.00  0.00    +0.000 OA
ATOM     13  H   UNL     1     -28.723 -28.807   1.078  0.00  0.00    +0.000 HD
ENDBRANCH  10  12
ENDBRANCH   9  10
ENDBRANCH   1   9
BRANCH   1  14
ATOM     14  C   UNL     1     -28.798 -25.646  -1.774  0.00  0.00    +0.000 C 
BRANCH  14  15
ATOM     15  C   UNL     1     -27.275 -25.702  -2.044  0.00  0.00    +0.000 C 
ATOM     16  C   UNL     1     -26.641 -24.323  -2.187  0.00  0.00    +0.000 C 
BRANCH  15  17
ATOM     17  O   UNL     1     -26.582 -26.403  -1.013  0.00  0.00    +0.000 OA
ATOM     18  H   UNL     1     -26.893 -25.998  -0.179  0.00  0.00    +0.000 HD
ENDBRANCH  15  17
ENDBRANCH  14  15
ENDBRANCH   1  14
TORSDOF 7
ENDMDL
MODEL 8
REMARK VINA RESULT:    -3.747     12.844     14.273
REMARK INTER + INTRA:          -5.630
REMARK INTER:                  -4.809
REMARK INTRA:                  -0.822
REMARK UNBOUND:                -0.570
REMARK  Name = 
REMARK  10 active torsions:
REMARK  status: ('A' for Active; 'I' for Inactive)
REMARK    1  A    between atoms: C_1  and  C_2
REMARK    2  A    between atoms: C_5  and  N_8
REMARK    3  A    between atoms: N_8  and  C_9
REMARK    4  A    between atoms: N_8  and  C_13
REMARK    5  A    between atoms: C_9  and  C_10
REMARK    6  A    between atoms: C_10  and  C_11
REMARK    7  A    between atoms: C_10  and  O_12
REMARK    8  A    between atoms: C_13  and  C_14
REMARK    9  A    between atoms: C_14  and  C_15
REMARK   10  A    between atoms: C_14  and  O_16
REMARK                            x       y       z     vdW  Elec       q    Type
REMARK                         _______ _______ _______ _____ _____    ______ ____
ROOT
ATOM      1  N   UNL     1     -45.289 -24.614  -3.146  0.00  0.00    +0.000 N 
ENDROOT
BRANCH   1   6
ATOM      2  C   UNL     1     -42.008 -20.159  -1.500  0.00  0.00    +0.000 C 
ATOM      3  C   UNL     1     -42.867 -21.318  -1.903  0.00  0.00    +0.000 A 
ATOM      4  C   UNL     1     -42.354 -22.611  -1.935  0.00  0.00    +0.000 A 
ATOM      5  C   UNL     1     -43.156 -23.689  -2.343  0.00  0.00    +0.000 A 
ATOM      6  C   UNL     1     -44.490 -23.532  -2.759  0.00  0.00    +0.000 A 
ATOM      7  C   UNL     1     -44.976 -22.212  -2.713  0.00  0.00    +0.000 A 
ATOM      8  C   UNL     1     -44.185 -21.124  -2.305  0.00  0.00    +0.000 A 
ENDBRANCH   1   6
BRANCH   1   9
ATOM      9  C   UNL     1     -45.587 -24.843  -4.580  0.00  0.00    +0.000 C 
BRANCH   9  10
ATOM     10  C   UNL     1     -44.535 -25.741  -5.276  0.00  0.00    +0.000 C 
ATOM     11  C   UNL     1     -43.456 -24.898  -5.945  0.00  0.00    +0.000 C 
BRANCH  10  12
ATOM     12  O   UNL     1     -43.896 -26.611  -4.331  0.00  0.00    +0.000 OA
ATOM     13  H   UNL     1     -44.588 -27.064  -3.822  0.00  0.00    +0.000 HD
ENDBRANCH  10  12
ENDBRANCH   9  10
ENDBRANCH   1   9
BRANCH   1  14
ATOM     14  C   UNL     1     -46.254 -25.234  -2.201  0.00  0.00    +0.000 C 
BRANCH  14  15
ATOM     15  C   UNL     1     -45.555 -26.162  -1.178  0.00  0.00    +0.000 C 
ATOM     16  C   UNL     1     -46.436 -26.508   0.017  0.00  0.00    +0.000 C 
BRANCH  15  17
ATOM     17  O   UNL     1     -45.127 -27.383  -1.779  0.00  0.00    +0.000 OA
ATOM     18  H   UNL     1     -44.184 -27.469  -1.533  0.00  0.00    +0.000 HD
ENDBRANCH  15  17
ENDBRANCH  14  15
ENDBRANCH   1  14
TORSDOF 7
ENDMDL
MODEL 9
REMARK VINA RESULT:    -3.704     16.025     18.036
REMARK INTER + INTRA:          -5.573
REMARK INTER:                  -5.003
REMARK INTRA:                  -0.570
REMARK UNBOUND:                -0.570
REMARK  Name = 
REMARK  10 active torsions:
REMARK  status: ('A' for Active; 'I' for Inactive)
REMARK    1  A    between atoms: C_1  and  C_2
REMARK    2  A    between atoms: C_5  and  N_8
REMARK    3  A    between atoms: N_8  and  C_9
REMARK    4  A    between atoms: N_8  and  C_13
REMARK    5  A    between atoms: C_9  and  C_10
REMARK    6  A    between atoms: C_10  and  C_11
REMARK    7  A    between atoms: C_10  and  O_12
REMARK    8  A    between atoms: C_13  and  C_14
REMARK    9  A    between atoms: C_14  and  C_15
REMARK   10  A    between atoms: C_14  and  O_16
REMARK                            x       y       z     vdW  Elec       q    Type
REMARK                         _______ _______ _______ _____ _____    ______ ____
ROOT
ATOM      1  N   UNL     1     -42.875 -14.828   3.437  0.00  0.00    +0.000 N 
ENDROOT
BRANCH   1   6
ATOM      2  C   UNL     1     -38.145 -14.810   0.128  0.00  0.00    +0.000 C 
ATOM      3  C   UNL     1     -39.377 -14.791   0.980  0.00  0.00    +0.000 A 
ATOM      4  C   UNL     1     -39.315 -14.417   2.318  0.00  0.00    +0.000 A 
ATOM      5  C   UNL     1     -40.468 -14.430   3.119  0.00  0.00    +0.000 A 
ATOM      6  C   UNL     1     -41.726 -14.836   2.637  0.00  0.00    +0.000 A 
ATOM      7  C   UNL     1     -41.752 -15.205   1.280  0.00  0.00    +0.000 A 
ATOM      8  C   UNL     1     -40.607 -15.194   0.467  0.00  0.00    +0.000 A 
ENDBRANCH   1   6
BRANCH   1   9
ATOM      9  C   UNL     1     -44.122 -15.469   2.954  0.00  0.00    +0.000 C 
BRANCH   9  10
ATOM     10  C   UNL     1     -44.178 -16.984   3.266  0.00  0.00    +0.000 C 
ATOM     11  C   UNL     1     -45.111 -17.265   4.438  0.00  0.00    +0.000 C 
BRANCH  10  12
ATOM     12  O   UNL     1     -44.651 -17.726   2.134  0.00  0.00    +0.000 OA
ATOM     13  H   UNL     1     -44.128 -17.460   1.360  0.00  0.00    +0.000 HD
ENDBRANCH  10  12
ENDBRANCH   9  10
ENDBRANCH   1   9
BRANCH   1  14
ATOM     14  C   UNL     1     -43.070 -13.801   4.493  0.00  0.00    +0.000 C 
BRANCH  14  15
ATOM     15  C   UNL     1     -42.871 -14.380   5.915  0.00  0.00    +0.000 C 
ATOM     16  C   UNL     1     -44.173 -14.518   6.694  0.00  0.00    +0.000 C 
BRANCH  15  17
ATOM     17  O   UNL     1     -42.240 -15.659   5.879  0.00  0.00    +0.000 OA
ATOM     18  H   UNL     1     -41.433 -15.559   6.424  0.00  0.00    +0.000 HD
ENDBRANCH  15  17
ENDBRANCH  14  15
ENDBRANCH   1  14
TORSDOF 7
ENDMDL
