MODEL 1
REMARK VINA RESULT:    -3.087      0.000      0.000
REMARK INTER + INTRA:          -3.410
REMARK INTER:                  -3.357
REMARK INTRA:                  -0.053
REMARK UNBOUND:                -0.053
REMARK  Name = 
REMARK  3 active torsions:
REMARK  status: ('A' for Active; 'I' for Inactive)
REMARK    1  A    between atoms: C_1  and  O_2
REMARK    2  A    between atoms: O_2  and  C_3
REMARK    3  A    between atoms: C_8  and  O_9
REMARK                            x       y       z     vdW  Elec       q    Type
REMARK                         _______ _______ _______ _____ _____    ______ ____
ROOT
ATOM      1  C   UNL     1     -42.918 -22.137  -2.544  0.00  0.00    +0.000 A 
ATOM      2  C   UNL     1     -44.144 -21.546  -2.242  0.00  0.00    +0.000 A 
ATOM      3  C   UNL     1     -44.184 -20.249  -1.713  0.00  0.00    +0.000 A 
ATOM      4  C   UNL     1     -43.002 -19.541  -1.485  0.00  0.00    +0.000 A 
ATOM      5  C   UNL     1     -41.774 -20.125  -1.785  0.00  0.00    +0.000 A 
ATOM      6  C   UNL     1     -41.743 -21.411  -2.308  0.00  0.00    +0.000 A 
ENDROOT
BRANCH   1   8
ATOM      7  C   UNL     1     -43.081 -24.486  -2.223  0.00  0.00    +0.000 C 
ATOM      8  O   UNL     1     -42.729 -23.393  -3.063  0.00  0.00    +0.000 OA
ENDBRANCH   1   8
BRANCH   6   9
ATOM      9  O   UNL     1     -40.524 -21.964  -2.595  0.00  0.00    +0.000 OA
ATOM     10  H   UNL     1     -40.628 -22.345  -3.488  0.00  0.00    +0.000 HD
ENDBRANCH   6   9
TORSDOF 2
ENDMDL
MODEL 2
REMARK VINA RESULT:    -3.024     14.089     15.200
REMARK INTER + INTRA:          -3.342
REMARK INTER:                  -3.289
REMARK INTRA:                  -0.052
REMARK UNBOUND:                -0.053
REMARK  Name = 
REMARK  3 active torsions:
REMARK  status: ('A' for Active; 'I' for Inactive)
REMARK    1  A    between atoms: C_1  and  O_2
REMARK    2  A    between atoms: O_2  and  C_3
REMARK    3  A    between atoms: C_8  and  O_9
REMARK                            x       y       z     vdW  Elec       q    Type
REMARK                         _______ _______ _______ _____ _____    ______ ____
ROOT
ATOM      1  C   UNL     1     -29.446 -29.148   0.070  0.00  0.00    +0.000 A 
ATOM      2  C   UNL     1     -28.235 -29.205  -0.619  0.00  0.00    +0.000 A 
ATOM      3  C   UNL     1     -27.904 -28.200  -1.535  0.00  0.00    +0.000 A 
ATOM      4  C   UNL     1     -28.779 -27.137  -1.767  0.00  0.00    +0.000 A 
ATOM      5  C   UNL     1     -29.990 -27.072  -1.082  0.00  0.00    +0.000 A 
ATOM      6  C   UNL     1     -30.311 -28.074  -0.175  0.00  0.00    +0.000 A 
ENDROOT
BRANCH   1   8
ATOM      7  C   UNL     1     -30.245 -31.345   0.494  0.00  0.00    +0.000 C 
ATOM      8  O   UNL     1     -29.899 -30.058   0.992  0.00  0.00    +0.000 OA
ENDBRANCH   1   8
BRANCH   6   9
ATOM      9  O   UNL     1     -31.507 -27.989   0.486  0.00  0.00    +0.000 OA
ATOM     10  H   UNL     1     -31.598 -28.845   0.946  0.00  0.00    +0.000 HD
ENDBRANCH   6   9
TORSDOF 2
ENDMDL
MODEL 3
REMARK VINA RESULT:    -2.981     12.418     13.772
REMARK INTER + INTRA:          -3.295
REMARK INTER:                  -3.246
REMARK INTRA:                  -0.050
REMARK UNBOUND:                -0.053
REMARK  Name = 
REMARK  3 active torsions:
REMARK  status: ('A' for Active; 'I' for Inactive)
REMARK    1  A    between atoms: C_1  and  O_2
REMARK    2  A    between atoms: O_2  and  C_3
REMARK    3  A    between atoms: C_8  and  O_9
REMARK                            x       y       z     vdW  Elec       q    Type
REMARK                         _______ _______ _______ _____ _____    ______ ____
ROOT
ATOM      1  C   UNL     1     -41.513 -13.980   9.251  0.00  0.00    +0.000 A 
ATOM      2  C   UNL     1     -40.592 -12.937   9.166  0.00  0.00    +0.000 A 
ATOM      3  C   UNL     1     -40.384 -12.285   7.944  0.00  0.00    +0.000 A 
ATOM      4  C   UNL     1     -41.093 -12.672   6.806  0.00  0.00    +0.000 A 
ATOM      5  C   UNL     1     -42.015 -13.714   6.882  0.00  0.00    +0.000 A 
ATOM      6  C   UNL     1     -42.215 -14.355   8.098  0.00  0.00    +0.000 A 
ENDROOT
BRANCH   1   8
ATOM      7  C   UNL     1     -42.561 -14.031  11.383  0.00  0.00    +0.000 C 
ATOM      8  O   UNL     1     -41.816 -14.705  10.375  0.00  0.00    +0.000 OA
ENDBRANCH   1   8
BRANCH   6   9
ATOM      9  O   UNL     1     -43.126 -15.376   8.149  0.00  0.00    +0.000 OA
ATOM     10  H   UNL     1     -43.878 -15.012   8.654  0.00  0.00    +0.000 HD
ENDBRANCH   6   9
TORSDOF 2
ENDMDL
MODEL 4
REMARK VINA RESULT:    -2.979     13.543     14.681
REMARK INTER + INTRA:          -3.293
REMARK INTER:                  -3.254
REMARK INTRA:                  -0.039
REMARK UNBOUND:                -0.053
REMARK  Name = 
REMARK  3 active torsions:
REMARK  status: ('A' for Active; 'I' for Inactive)
REMARK    1  A    between atoms: C_1  and  O_2
REMARK    2  A    between atoms: O_2  and  C_3
REMARK    3  A    between atoms: C_8  and  O_9
REMARK                            x       y       z     vdW  Elec       q    Type
REMARK                         _______ _______ _______ _____ _____    ______ ____
ROOT
ATOM      1  C   UNL     1     -41.218 -13.029   8.979  0.00  0.00    +0.000 A 
ATOM      2  C   UNL     1     -41.091 -12.051   9.965  0.00  0.00    +0.000 A 
ATOM      3  C   UNL     1     -41.632 -12.268  11.239  0.00  0.00    +0.000 A 
ATOM      4  C   UNL     1     -42.301 -13.458  11.531  0.00  0.00    +0.000 A 
ATOM      5  C   UNL     1     -42.431 -14.440  10.551  0.00  0.00    +0.000 A 
ATOM      6  C   UNL     1     -41.892 -14.216   9.290  0.00  0.00    +0.000 A 
ENDROOT
BRANCH   1   8
ATOM      7  C   UNL     1     -39.657 -12.058   7.473  0.00  0.00    +0.000 C 
ATOM      8  O   UNL     1     -40.741 -12.952   7.695  0.00  0.00    +0.000 OA
ENDBRANCH   1   8
BRANCH   6   9
ATOM      9  O   UNL     1     -42.033 -15.196   8.344  0.00  0.00    +0.000 OA
ATOM     10  H   UNL     1     -42.360 -14.730   7.551  0.00  0.00    +0.000 HD
ENDBRANCH   6   9
TORSDOF 2
ENDMDL
MODEL 5
REMARK VINA RESULT:    -2.931     14.059     15.354
REMARK INTER + INTRA:          -3.240
REMARK INTER:                  -3.196
REMARK INTRA:                  -0.045
REMARK UNBOUND:                -0.053
REMARK  Name = 
REMARK  3 active torsions:
REMARK  status: ('A' for Active; 'I' for Inactive)
REMARK    1  A    between atoms: C_1  and  O_2
REMARK    2  A    between atoms: O_2  and  C_3
REMARK    3  A    between atoms: C_8  and  O_9
REMARK                            x       y       z     vdW  Elec       q    Type
REMARK                         _______ _______ _______ _____ _____    ______ ____
ROOT
ATOM      1  C   UNL     1     -29.399 -27.684  -1.047  0.00  0.00    +0.000 A 
ATOM      2  C   UNL     1     -28.139 -28.172  -1.388  0.00  0.00    +0.000 A 
ATOM      3  C   UNL     1     -27.595 -29.256  -0.686  0.00  0.00    +0.000 A 
ATOM      4  C   UNL     1     -28.307 -29.853   0.356  0.00  0.00    +0.000 A 
ATOM      5  C   UNL     1     -29.567 -29.371   0.702  0.00  0.00    +0.000 A 
ATOM      6  C   UNL     1     -30.098 -28.296   0.001  0.00  0.00    +0.000 A 
ENDROOT
BRANCH   1   8
ATOM      7  C   UNL     1     -29.257 -25.504  -1.982  0.00  0.00    +0.000 C 
ATOM      8  O   UNL     1     -30.051 -26.635  -1.644  0.00  0.00    +0.000 OA
ENDBRANCH   1   8
BRANCH   6   9
ATOM      9  O   UNL     1     -31.339 -27.840   0.359  0.00  0.00    +0.000 OA
ATOM     10  H   UNL     1     -31.753 -28.589   0.829  0.00  0.00    +0.000 HD
ENDBRANCH   6   9
TORSDOF 2
ENDMDL
MODEL 6
REMARK VINA RESULT:    -2.865     11.027     12.342
REMARK INTER + INTRA:          -3.169
REMARK INTER:                  -3.120
REMARK INTRA:                  -0.048
REMARK UNBOUND:                -0.053
REMARK  Name = 
REMARK  3 active torsions:
REMARK  status: ('A' for Active; 'I' for Inactive)
REMARK    1  A    between atoms: C_1  and  O_2
REMARK    2  A    between atoms: O_2  and  C_3
REMARK    3  A    between atoms: C_8  and  O_9
REMARK                            x       y       z     vdW  Elec       q    Type
REMARK                         _______ _______ _______ _____ _____    ______ ____
ROOT
ATOM      1  C   UNL     1     -31.198 -25.812  -4.409  0.00  0.00    +0.000 A 
ATOM      2  C   UNL     1     -31.161 -27.132  -4.858  0.00  0.00    +0.000 A 
ATOM      3  C   UNL     1     -32.257 -27.668  -5.545  0.00  0.00    +0.000 A 
ATOM      4  C   UNL     1     -33.391 -26.891  -5.785  0.00  0.00    +0.000 A 
ATOM      5  C   UNL     1     -33.436 -25.571  -5.341  0.00  0.00    +0.000 A 
ATOM      6  C   UNL     1     -32.344 -25.048  -4.660  0.00  0.00    +0.000 A 
ENDROOT
BRANCH   1   8
ATOM      7  C   UNL     1     -29.661 -25.833  -2.597  0.00  0.00    +0.000 C 
ATOM      8  O   UNL     1     -30.203 -25.160  -3.726  0.00  0.00    +0.000 OA
ENDBRANCH   1   8
BRANCH   6   9
ATOM      9  O   UNL     1     -32.411 -23.748  -4.232  0.00  0.00    +0.000 OA
ATOM     10  H   UNL     1     -31.498 -23.526  -3.968  0.00  0.00    +0.000 HD
ENDBRANCH   6   9
TORSDOF 2
ENDMDL
MODEL 7
REMARK VINA RESULT:    -2.858     13.930     15.110
REMARK INTER + INTRA:          -3.162
REMARK INTER:                  -3.109
REMARK INTRA:                  -0.053
REMARK UNBOUND:                -0.053
REMARK  Name = 
REMARK  3 active torsions:
REMARK  status: ('A' for Active; 'I' for Inactive)
REMARK    1  A    between atoms: C_1  and  O_2
REMARK    2  A    between atoms: O_2  and  C_3
REMARK    3  A    between atoms: C_8  and  O_9
REMARK                            x       y       z     vdW  Elec       q    Type
REMARK                         _______ _______ _______ _____ _____    ______ ____
ROOT
ATOM      1  C   UNL     1     -30.592 -28.954  -0.412  0.00  0.00    +0.000 A 
ATOM      2  C   UNL     1     -31.325 -29.801  -1.242  0.00  0.00    +0.000 A 
ATOM      3  C   UNL     1     -31.313 -31.183  -1.019  0.00  0.00    +0.000 A 
ATOM      4  C   UNL     1     -30.569 -31.724   0.032  0.00  0.00    +0.000 A 
ATOM      5  C   UNL     1     -29.834 -30.884   0.866  0.00  0.00    +0.000 A 
ATOM      6  C   UNL     1     -29.852 -29.514   0.637  0.00  0.00    +0.000 A 
ENDROOT
BRANCH   1   8
ATOM      7  C   UNL     1     -29.897 -27.074  -1.688  0.00  0.00    +0.000 C 
ATOM      8  O   UNL     1     -30.512 -27.588  -0.513  0.00  0.00    +0.000 OA
ENDBRANCH   1   8
BRANCH   6   9
ATOM      9  O   UNL     1     -29.122 -28.710   1.470  0.00  0.00    +0.000 OA
ATOM     10  H   UNL     1     -28.708 -29.323   2.108  0.00  0.00    +0.000 HD
ENDBRANCH   6   9
TORSDOF 2
ENDMDL
MODEL 8
REMARK VINA RESULT:    -2.825     14.956     16.306
REMARK INTER + INTRA:          -3.125
REMARK INTER:                  -3.085
REMARK INTRA:                  -0.040
REMARK UNBOUND:                -0.053
REMARK  Name = 
REMARK  3 active torsions:
REMARK  status: ('A' for Active; 'I' for Inactive)
REMARK    1  A    between atoms: C_1  and  O_2
REMARK    2  A    between atoms: O_2  and  C_3
REMARK    3  A    between atoms: C_8  and  O_9
REMARK                            x       y       z     vdW  Elec       q    Type
REMARK                         _______ _______ _______ _____ _____    ______ ____
ROOT
ATOM      1  C   UNL     1     -41.922 -12.685  11.638  0.00  0.00    +0.000 A 
ATOM      2  C   UNL     1     -41.170 -11.863  10.800  0.00  0.00    +0.000 A 
ATOM      3  C   UNL     1     -40.817 -12.304   9.518  0.00  0.00    +0.000 A 
ATOM      4  C   UNL     1     -41.213 -13.566   9.071  0.00  0.00    +0.000 A 
ATOM      5  C   UNL     1     -41.966 -14.393   9.902  0.00  0.00    +0.000 A 
ATOM      6  C   UNL     1     -42.310 -13.947  11.171  0.00  0.00    +0.000 A 
ENDROOT
BRANCH   1   8
ATOM      7  C   UNL     1     -41.582 -11.401  13.608  0.00  0.00    +0.000 C 
ATOM      8  O   UNL     1     -42.336 -12.385  12.910  0.00  0.00    +0.000 OA
ENDBRANCH   1   8
BRANCH   6   9
ATOM      9  O   UNL     1     -43.050 -14.778  11.970  0.00  0.00    +0.000 OA
ATOM     10  H   UNL     1     -43.478 -14.185  12.617  0.00  0.00    +0.000 HD
ENDBRANCH   6   9
TORSDOF 2
ENDMDL
MODEL 9
REMARK VINA RESULT:    -2.818     13.873     14.772
REMARK INTER + INTRA:          -3.118
REMARK INTER:                  -3.066
REMARK INTRA:                  -0.052
REMARK UNBOUND:                -0.053
REMARK  Name = 
REMARK  3 active torsions:
REMARK  status: ('A' for Active; 'I' for Inactive)
REMARK    1  A    between atoms: C_1  and  O_2
REMARK    2  A    between atoms: O_2  and  C_3
REMARK    3  A    between atoms: C_8  and  O_9
REMARK                            x       y       z     vdW  Elec       q    Type
REMARK                         _______ _______ _______ _____ _____    ______ ____
ROOT
ATOM      1  C   UNL     1     -30.558 -29.999  -0.155  0.00  0.00    +0.000 A 
ATOM      2  C   UNL     1     -31.207 -30.306  -1.350  0.00  0.00    +0.000 A 
ATOM      3  C   UNL     1     -31.424 -29.306  -2.306  0.00  0.00    +0.000 A 
ATOM      4  C   UNL     1     -30.996 -27.998  -2.071  0.00  0.00    +0.000 A 
ATOM      5  C   UNL     1     -30.346 -27.683  -0.879  0.00  0.00    +0.000 A 
ATOM      6  C   UNL     1     -30.136 -28.682   0.063  0.00  0.00    +0.000 A 
ENDROOT
BRANCH   1   8
ATOM      7  C   UNL     1     -29.304 -31.872   0.597  0.00  0.00    +0.000 C 
ATOM      8  O   UNL     1     -30.280 -30.873   0.866  0.00  0.00    +0.000 OA
ENDBRANCH   1   8
BRANCH   6   9
ATOM      9  O   UNL     1     -29.495 -28.348   1.227  0.00  0.00    +0.000 OA
ATOM     10  H   UNL     1     -29.874 -28.946   1.899  0.00  0.00    +0.000 HD
ENDBRANCH   6   9
TORSDOF 2
ENDMDL
