MODEL 1
REMARK VINA RESULT:    -4.084      0.000      0.000
REMARK INTER + INTRA:          -5.946
REMARK INTER:                  -5.516
REMARK INTRA:                  -0.429
REMARK UNBOUND:                -0.429
REMARK  Name = 
REMARK  10 active torsions:
REMARK  status: ('A' for Active; 'I' for Inactive)
REMARK    1  A    between atoms: C_1  and  C_2
REMARK    2  A    between atoms: C_5  and  N_8
REMARK    3  A    between atoms: N_8  and  C_9
REMARK    4  A    between atoms: N_8  and  C_13
REMARK    5  A    between atoms: C_9  and  C_10
REMARK    6  A    between atoms: C_10  and  C_11
REMARK    7  A    between atoms: C_10  and  O_12
REMARK    8  A    between atoms: C_13  and  C_14
REMARK    9  A    between atoms: C_14  and  C_15
REMARK   10  A    between atoms: C_14  and  O_16
REMARK                            x       y       z     vdW  Elec       q    Type
REMARK                         _______ _______ _______ _____ _____    ______ ____
ROOT
ATOM      1  N   UNL     1     -30.659 -26.636  -2.923  0.00  0.00    +0.000 N 
ENDROOT
BRANCH   1   6
ATOM      2  C   UNL     1     -31.113 -31.612  -0.032  0.00  0.00    +0.000 C 
ATOM      3  C   UNL     1     -31.020 -30.316  -0.778  0.00  0.00    +0.000 A 
ATOM      4  C   UNL     1     -31.225 -30.267  -2.153  0.00  0.00    +0.000 A 
ATOM      5  C   UNL     1     -31.106 -29.054  -2.851  0.00  0.00    +0.000 A 
ATOM      6  C   UNL     1     -30.756 -27.845  -2.223  0.00  0.00    +0.000 A 
ATOM      7  C   UNL     1     -30.558 -27.932  -0.833  0.00  0.00    +0.000 A 
ATOM      8  C   UNL     1     -30.676 -29.138  -0.122  0.00  0.00    +0.000 A 
ENDBRANCH   1   6
BRANCH   1   9
ATOM      9  C   UNL     1     -31.633 -26.315  -3.994  0.00  0.00    +0.000 C 
BRANCH   9  10
ATOM     10  C   UNL     1     -31.362 -24.945  -4.661  0.00  0.00    +0.000 C 
ATOM     11  C   UNL     1     -31.724 -24.978  -6.141  0.00  0.00    +0.000 C 
BRANCH  10  12
ATOM     12  O   UNL     1     -32.133 -23.908  -4.039  0.00  0.00    +0.000 OA
ATOM     13  H   UNL     1     -32.549 -23.379  -4.740  0.00  0.00    +0.000 HD
ENDBRANCH  10  12
ENDBRANCH   9  10
ENDBRANCH   1   9
BRANCH   1  14
ATOM     14  C   UNL     1     -29.372 -25.899  -3.010  0.00  0.00    +0.000 C 
BRANCH  14  15
ATOM     15  C   UNL     1     -29.114 -25.024  -1.759  0.00  0.00    +0.000 C 
ATOM     16  C   UNL     1     -27.644 -24.666  -1.571  0.00  0.00    +0.000 C 
BRANCH  15  17
ATOM     17  O   UNL     1     -29.862 -23.810  -1.802  0.00  0.00    +0.000 OA
ATOM     18  H   UNL     1     -30.772 -24.082  -2.037  0.00  0.00    +0.000 HD
ENDBRANCH  15  17
ENDBRANCH  14  15
ENDBRANCH   1  14
TORSDOF 7
ENDMDL
MODEL 2
REMARK VINA RESULT:    -4.019      1.131      3.223
REMARK INTER + INTRA:          -5.857
REMARK INTER:                  -5.180
REMARK INTRA:                  -0.678
REMARK UNBOUND:                -0.429
REMARK  Name = 
REMARK  10 active torsions:
REMARK  status: ('A' for Active; 'I' for Inactive)
REMARK    1  A    between atoms: C_1  and  C_2
REMARK    2  A    between atoms: C_5  and  N_8
REMARK    3  A    between atoms: N_8  and  C_9
REMARK    4  A    between atoms: N_8  and  C_13
REMARK    5  A    between atoms: C_9  and  C_10
REMARK    6  A    between atoms: C_10  and  C_11
REMARK    7  A    between atoms: C_10  and  O_12
REMARK    8  A    between atoms: C_13  and  C_14
REMARK    9  A    between atoms: C_14  and  C_15
REMARK   10  A    between atoms: C_14  and  O_16
REMARK                            x       y       z     vdW  Elec       q    Type
REMARK                         _______ _______ _______ _____ _____    ______ ____
ROOT
ATOM      1  N   UNL     1     -30.043 -26.473  -3.118  0.00  0.00    +0.000 N 
ENDROOT
BRANCH   1   6
ATOM      2  C   UNL     1     -29.366 -30.577   0.886  0.00  0.00    +0.000 C 
ATOM      3  C   UNL     1     -29.534 -29.494  -0.136  0.00  0.00    +0.000 A 
ATOM      4  C   UNL     1     -30.758 -28.854  -0.304  0.00  0.00    +0.000 A 
ATOM      5  C   UNL     1     -30.918 -27.862  -1.284  0.00  0.00    +0.000 A 
ATOM      6  C   UNL     1     -29.882 -27.477  -2.155  0.00  0.00    +0.000 A 
ATOM      7  C   UNL     1     -28.659 -28.144  -1.955  0.00  0.00    +0.000 A 
ATOM      8  C   UNL     1     -28.485 -29.137  -0.977  0.00  0.00    +0.000 A 
ENDBRANCH   1   6
BRANCH   1   9
ATOM      9  C   UNL     1     -29.166 -25.278  -3.099  0.00  0.00    +0.000 C 
BRANCH   9  10
ATOM     10  C   UNL     1     -29.242 -24.498  -1.763  0.00  0.00    +0.000 C 
ATOM     11  C   UNL     1     -27.856 -24.052  -1.313  0.00  0.00    +0.000 C 
BRANCH  10  12
ATOM     12  O   UNL     1     -30.064 -23.330  -1.894  0.00  0.00    +0.000 OA
ATOM     13  H   UNL     1     -29.885 -22.750  -1.136  0.00  0.00    +0.000 HD
ENDBRANCH  10  12
ENDBRANCH   9  10
ENDBRANCH   1   9
BRANCH   1  14
ATOM     14  C   UNL     1     -31.336 -26.288  -3.827  0.00  0.00    +0.000 C 
BRANCH  14  15
ATOM     15  C   UNL     1     -31.358 -24.991  -4.671  0.00  0.00    +0.000 C 
ATOM     16  C   UNL     1     -31.790 -25.223  -6.115  0.00  0.00    +0.000 C 
BRANCH  15  17
ATOM     17  O   UNL     1     -32.222 -24.008  -4.105  0.00  0.00    +0.000 OA
ATOM     18  H   UNL     1     -32.646 -24.452  -3.343  0.00  0.00    +0.000 HD
ENDBRANCH  15  17
ENDBRANCH  14  15
ENDBRANCH   1  14
TORSDOF 7
ENDMDL
MODEL 3
REMARK VINA RESULT:    -4.001      1.581      5.116
REMARK INTER + INTRA:          -5.833
REMARK INTER:                  -5.202
REMARK INTRA:                  -0.631
REMARK UNBOUND:                -0.429
REMARK  Name = 
REMARK  10 active torsions:
REMARK  status: ('A' for Active; 'I' for Inactive)
REMARK    1  A    between atoms: C_1  and  C_2
REMARK    2  A    between atoms: C_5  and  N_8
REMARK    3  A    between atoms: N_8  and  C_9
REMARK    4  A    between atoms: N_8  and  C_13
REMARK    5  A    between atoms: C_9  and  C_10
REMARK    6  A    between atoms: C_10  and  C_11
REMARK    7  A    between atoms: C_10  and  O_12
REMARK    8  A    between atoms: C_13  and  C_14
REMARK    9  A    between atoms: C_14  and  C_15
REMARK   10  A    between atoms: C_14  and  O_16
REMARK                            x       y       z     vdW  Elec       q    Type
REMARK                         _______ _______ _______ _____ _____    ______ ____
ROOT
ATOM      1  N   UNL     1     -30.175 -26.607  -3.319  0.00  0.00    +0.000 N 
ENDROOT
BRANCH   1   6
ATOM      2  C   UNL     1     -34.591 -24.888  -6.617  0.00  0.00    +0.000 C 
ATOM      3  C   UNL     1     -33.430 -25.332  -5.781  0.00  0.00    +0.000 A 
ATOM      4  C   UNL     1     -33.135 -26.683  -5.628  0.00  0.00    +0.000 A 
ATOM      5  C   UNL     1     -32.064 -27.095  -4.819  0.00  0.00    +0.000 A 
ATOM      6  C   UNL     1     -31.254 -26.190  -4.109  0.00  0.00    +0.000 A 
ATOM      7  C   UNL     1     -31.580 -24.833  -4.288  0.00  0.00    +0.000 A 
ATOM      8  C   UNL     1     -32.647 -24.407  -5.096  0.00  0.00    +0.000 A 
ENDBRANCH   1   6
BRANCH   1   9
ATOM      9  C   UNL     1     -28.887 -25.875  -3.374  0.00  0.00    +0.000 C 
BRANCH   9  10
ATOM     10  C   UNL     1     -28.425 -25.369  -1.985  0.00  0.00    +0.000 C 
ATOM     11  C   UNL     1     -27.147 -24.547  -2.102  0.00  0.00    +0.000 C 
BRANCH  10  12
ATOM     12  O   UNL     1     -29.430 -24.545  -1.377  0.00  0.00    +0.000 OA
ATOM     13  H   UNL     1     -29.003 -23.729  -1.068  0.00  0.00    +0.000 HD
ENDBRANCH  10  12
ENDBRANCH   9  10
ENDBRANCH   1   9
BRANCH   1  14
ATOM     14  C   UNL     1     -30.078 -28.005  -2.827  0.00  0.00    +0.000 C 
BRANCH  14  15
ATOM     15  C   UNL     1     -30.966 -28.250  -1.583  0.00  0.00    +0.000 C 
ATOM     16  C   UNL     1     -30.806 -29.647  -0.996  0.00  0.00    +0.000 C 
BRANCH  15  17
ATOM     17  O   UNL     1     -30.697 -27.303  -0.549  0.00  0.00    +0.000 OA
ATOM     18  H   UNL     1     -29.965 -26.754  -0.894  0.00  0.00    +0.000 HD
ENDBRANCH  15  17
ENDBRANCH  14  15
ENDBRANCH   1  14
TORSDOF 7
ENDMDL
MODEL 4
REMARK VINA RESULT:    -3.997      2.817      4.719
REMARK INTER + INTRA:          -5.828
REMARK INTER:                  -5.302
REMARK INTRA:                  -0.526
REMARK UNBOUND:                -0.429
REMARK  Name = 
REMARK  10 active torsions:
REMARK  status: ('A' for Active; 'I' for Inactive)
REMARK    1  A    between atoms: C_1  and  C_2
REMARK    2  A    between atoms: C_5  and  N_8
REMARK    3  A    between atoms: N_8  and  C_9
REMARK    4  A    between atoms: N_8  and  C_13
REMARK    5  A    between atoms: C_9  and  C_10
REMARK    6  A    between atoms: C_10  and  C_11
REMARK    7  A    between atoms: C_10  and  O_12
REMARK    8  A    between atoms: C_13  and  C_14
REMARK    9  A    between atoms: C_14  and  C_15
REMARK   10  A    between atoms: C_14  and  O_16
REMARK                            x       y       z     vdW  Elec       q    Type
REMARK                         _______ _______ _______ _____ _____    ______ ____
ROOT
ATOM      1  N   UNL     1     -31.493 -25.275  -5.961  0.00  0.00    +0.000 N 
ENDROOT
BRANCH   1   6
ATOM      2  C   UNL     1     -28.876 -27.470  -1.307  0.00  0.00    +0.000 C 
ATOM      3  C   UNL     1     -29.533 -26.897  -2.525  0.00  0.00    +0.000 A 
ATOM      4  C   UNL     1     -29.828 -25.540  -2.606  0.00  0.00    +0.000 A 
ATOM      5  C   UNL     1     -30.471 -25.013  -3.738  0.00  0.00    +0.000 A 
ATOM      6  C   UNL     1     -30.870 -25.810  -4.827  0.00  0.00    +0.000 A 
ATOM      7  C   UNL     1     -30.554 -27.176  -4.712  0.00  0.00    +0.000 A 
ATOM      8  C   UNL     1     -29.909 -27.715  -3.586  0.00  0.00    +0.000 A 
ENDBRANCH   1   6
BRANCH   1   9
ATOM      9  C   UNL     1     -30.716 -25.063  -7.206  0.00  0.00    +0.000 C 
BRANCH   9  10
ATOM     10  C   UNL     1     -29.422 -24.246  -6.974  0.00  0.00    +0.000 C 
ATOM     11  C   UNL     1     -28.193 -25.036  -7.411  0.00  0.00    +0.000 C 
BRANCH  10  12
ATOM     12  O   UNL     1     -29.447 -23.019  -7.717  0.00  0.00    +0.000 OA
ATOM     13  H   UNL     1     -28.728 -23.047  -8.369  0.00  0.00    +0.000 HD
ENDBRANCH  10  12
ENDBRANCH   9  10
ENDBRANCH   1   9
BRANCH   1  14
ATOM     14  C   UNL     1     -32.724 -24.451  -5.845  0.00  0.00    +0.000 C 
BRANCH  14  15
ATOM     15  C   UNL     1     -34.004 -25.318  -5.788  0.00  0.00    +0.000 C 
ATOM     16  C   UNL     1     -33.992 -26.472  -6.783  0.00  0.00    +0.000 C 
BRANCH  15  17
ATOM     17  O   UNL     1     -34.216 -25.860  -4.485  0.00  0.00    +0.000 OA
ATOM     18  H   UNL     1     -35.178 -26.030  -4.436  0.00  0.00    +0.000 HD
ENDBRANCH  15  17
ENDBRANCH  14  15
ENDBRANCH   1  14
TORSDOF 7
ENDMDL
MODEL 5
REMARK VINA RESULT:    -3.978      1.979      4.977
REMARK INTER + INTRA:          -5.803
REMARK INTER:                  -5.306
REMARK INTRA:                  -0.497
REMARK UNBOUND:                -0.429
REMARK  Name = 
REMARK  10 active torsions:
REMARK  status: ('A' for Active; 'I' for Inactive)
REMARK    1  A    between atoms: C_1  and  C_2
REMARK    2  A    between atoms: C_5  and  N_8
REMARK    3  A    between atoms: N_8  and  C_9
REMARK    4  A    between atoms: N_8  and  C_13
REMARK    5  A    between atoms: C_9  and  C_10
REMARK    6  A    between atoms: C_10  and  C_11
REMARK    7  A    between atoms: C_10  and  O_12
REMARK    8  A    between atoms: C_13  and  C_14
REMARK    9  A    between atoms: C_14  and  C_15
REMARK   10  A    between atoms: C_14  and  O_16
REMARK                            x       y       z     vdW  Elec       q    Type
REMARK                         _______ _______ _______ _____ _____    ______ ____
ROOT
ATOM      1  N   UNL     1     -30.453 -26.513  -3.153  0.00  0.00    +0.000 N 
ENDROOT
BRANCH   1   6
ATOM      2  C   UNL     1     -34.629 -24.891  -6.795  0.00  0.00    +0.000 C 
ATOM      3  C   UNL     1     -33.529 -25.313  -5.869  0.00  0.00    +0.000 A 
ATOM      4  C   UNL     1     -33.318 -26.656  -5.576  0.00  0.00    +0.000 A 
ATOM      5  C   UNL     1     -32.305 -27.044  -4.684  0.00  0.00    +0.000 A 
ATOM      6  C   UNL     1     -31.475 -26.118  -4.026  0.00  0.00    +0.000 A 
ATOM      7  C   UNL     1     -31.715 -24.769  -4.348  0.00  0.00    +0.000 A 
ATOM      8  C   UNL     1     -32.723 -24.368  -5.240  0.00  0.00    +0.000 A 
ENDBRANCH   1   6
BRANCH   1   9
ATOM      9  C   UNL     1     -30.778 -27.288  -1.931  0.00  0.00    +0.000 C 
BRANCH   9  10
ATOM     10  C   UNL     1     -30.532 -28.807  -2.101  0.00  0.00    +0.000 C 
ATOM     11  C   UNL     1     -29.461 -29.297  -1.134  0.00  0.00    +0.000 C 
BRANCH  10  12
ATOM     12  O   UNL     1     -31.731 -29.554  -1.853  0.00  0.00    +0.000 OA
ATOM     13  H   UNL     1     -32.284 -29.041  -1.240  0.00  0.00    +0.000 HD
ENDBRANCH  10  12
ENDBRANCH   9  10
ENDBRANCH   1   9
BRANCH   1  14
ATOM     14  C   UNL     1     -29.159 -25.786  -3.105  0.00  0.00    +0.000 C 
BRANCH  14  15
ATOM     15  C   UNL     1     -28.884 -25.173  -1.710  0.00  0.00    +0.000 C 
ATOM     16  C   UNL     1     -27.402 -24.943  -1.438  0.00  0.00    +0.000 C 
BRANCH  15  17
ATOM     17  O   UNL     1     -29.563 -23.930  -1.538  0.00  0.00    +0.000 OA
ATOM     18  H   UNL     1     -30.320 -24.135  -0.952  0.00  0.00    +0.000 HD
ENDBRANCH  15  17
ENDBRANCH  14  15
ENDBRANCH   1  14
TORSDOF 7
ENDMDL
MODEL 6
REMARK VINA RESULT:    -3.952      2.423      5.170
REMARK INTER + INTRA:          -5.767
REMARK INTER:                  -5.198
REMARK INTRA:                  -0.569
REMARK UNBOUND:                -0.429
REMARK  Name = 
REMARK  10 active torsions:
REMARK  status: ('A' for Active; 'I' for Inactive)
REMARK    1  A    between atoms: C_1  and  C_2
REMARK    2  A    between atoms: C_5  and  N_8
REMARK    3  A    between atoms: N_8  and  C_9
REMARK    4  A    between atoms: N_8  and  C_13
REMARK    5  A    between atoms: C_9  and  C_10
REMARK    6  A    between atoms: C_10  and  C_11
REMARK    7  A    between atoms: C_10  and  O_12
REMARK    8  A    between atoms: C_13  and  C_14
REMARK    9  A    between atoms: C_14  and  C_15
REMARK   10  A    between atoms: C_14  and  O_16
REMARK                            x       y       z     vdW  Elec       q    Type
REMARK                         _______ _______ _______ _____ _____    ______ ____
ROOT
ATOM      1  N   UNL     1     -29.907 -27.036  -1.875  0.00  0.00    +0.000 N 
ENDROOT
BRANCH   1   6
ATOM      2  C   UNL     1     -33.327 -24.794  -5.951  0.00  0.00    +0.000 C 
ATOM      3  C   UNL     1     -32.455 -25.367  -4.876  0.00  0.00    +0.000 A 
ATOM      4  C   UNL     1     -31.394 -24.637  -4.352  0.00  0.00    +0.000 A 
ATOM      5  C   UNL     1     -30.561 -25.190  -3.365  0.00  0.00    +0.000 A 
ATOM      6  C   UNL     1     -30.729 -26.497  -2.873  0.00  0.00    +0.000 A 
ATOM      7  C   UNL     1     -31.813 -27.206  -3.424  0.00  0.00    +0.000 A 
ATOM      8  C   UNL     1     -32.655 -26.663  -4.409  0.00  0.00    +0.000 A 
ENDBRANCH   1   6
BRANCH   1   9
ATOM      9  C   UNL     1     -28.719 -26.284  -1.405  0.00  0.00    +0.000 C 
BRANCH   9  10
ATOM     10  C   UNL     1     -27.402 -26.775  -2.057  0.00  0.00    +0.000 C 
ATOM     11  C   UNL     1     -26.862 -25.741  -3.038  0.00  0.00    +0.000 C 
BRANCH  10  12
ATOM     12  O   UNL     1     -26.395 -27.014  -1.064  0.00  0.00    +0.000 OA
ATOM     13  H   UNL     1     -25.568 -26.605  -1.369  0.00  0.00    +0.000 HD
ENDBRANCH  10  12
ENDBRANCH   9  10
ENDBRANCH   1   9
BRANCH   1  14
ATOM     14  C   UNL     1     -29.859 -28.499  -1.625  0.00  0.00    +0.000 C 
BRANCH  14  15
ATOM     15  C   UNL     1     -30.378 -28.869  -0.215  0.00  0.00    +0.000 C 
ATOM     16  C   UNL     1     -29.260 -29.074   0.800  0.00  0.00    +0.000 C 
BRANCH  15  17
ATOM     17  O   UNL     1     -31.264 -27.875   0.298  0.00  0.00    +0.000 OA
ATOM     18  H   UNL     1     -31.640 -27.439  -0.493  0.00  0.00    +0.000 HD
ENDBRANCH  15  17
ENDBRANCH  14  15
ENDBRANCH   1  14
TORSDOF 7
ENDMDL
MODEL 7
REMARK VINA RESULT:    -3.948     14.134     15.663
REMARK INTER + INTRA:          -5.762
REMARK INTER:                  -5.113
REMARK INTRA:                  -0.649
REMARK UNBOUND:                -0.429
REMARK  Name = 
REMARK  10 active torsions:
REMARK  status: ('A' for Active; 'I' for Inactive)
REMARK    1  A    between atoms: C_1  and  C_2
REMARK    2  A    between atoms: C_5  and  N_8
REMARK    3  A    between atoms: N_8  and  C_9
REMARK    4  A    between atoms: N_8  and  C_13
REMARK    5  A    between atoms: C_9  and  C_10
REMARK    6  A    between atoms: C_10  and  C_11
REMARK    7  A    between atoms: C_10  and  O_12
REMARK    8  A    between atoms: C_13  and  C_14
REMARK    9  A    between atoms: C_14  and  C_15
REMARK   10  A    between atoms: C_14  and  O_16
REMARK                            x       y       z     vdW  Elec       q    Type
REMARK                         _______ _______ _______ _____ _____    ______ ____
ROOT
ATOM      1  N   UNL     1     -45.858 -26.168  -2.175  0.00  0.00    +0.000 N 
ENDROOT
BRANCH   1   6
ATOM      2  C   UNL     1     -42.657 -21.470  -3.183  0.00  0.00    +0.000 C 
ATOM      3  C   UNL     1     -43.486 -22.696  -2.946  0.00  0.00    +0.000 A 
ATOM      4  C   UNL     1     -44.874 -22.645  -3.021  0.00  0.00    +0.000 A 
ATOM      5  C   UNL     1     -45.647 -23.789  -2.768  0.00  0.00    +0.000 A 
ATOM      6  C   UNL     1     -45.082 -25.025  -2.407  0.00  0.00    +0.000 A 
ATOM      7  C   UNL     1     -43.677 -25.041  -2.342  0.00  0.00    +0.000 A 
ATOM      8  C   UNL     1     -42.891 -23.904  -2.595  0.00  0.00    +0.000 A 
ENDBRANCH   1   6
BRANCH   1   9
ATOM      9  C   UNL     1     -45.838 -27.290  -3.144  0.00  0.00    +0.000 C 
BRANCH   9  10
ATOM     10  C   UNL     1     -46.055 -28.668  -2.471  0.00  0.00    +0.000 C 
ATOM     11  C   UNL     1     -46.070 -29.784  -3.508  0.00  0.00    +0.000 C 
BRANCH  10  12
ATOM     12  O   UNL     1     -45.012 -28.951  -1.529  0.00  0.00    +0.000 OA
ATOM     13  H   UNL     1     -44.735 -28.112  -1.125  0.00  0.00    +0.000 HD
ENDBRANCH  10  12
ENDBRANCH   9  10
ENDBRANCH   1   9
BRANCH   1  14
ATOM     14  C   UNL     1     -47.061 -26.116  -1.305  0.00  0.00    +0.000 C 
BRANCH  14  15
ATOM     15  C   UNL     1     -46.711 -26.323   0.189  0.00  0.00    +0.000 C 
ATOM     16  C   UNL     1     -47.587 -27.368   0.870  0.00  0.00    +0.000 C 
BRANCH  15  17
ATOM     17  O   UNL     1     -45.348 -26.708   0.362  0.00  0.00    +0.000 OA
ATOM     18  H   UNL     1     -45.355 -27.331   1.117  0.00  0.00    +0.000 HD
ENDBRANCH  15  17
ENDBRANCH  14  15
ENDBRANCH   1  14
TORSDOF 7
ENDMDL
MODEL 8
REMARK VINA RESULT:    -3.843      3.140      5.067
REMARK INTER + INTRA:          -5.620
REMARK INTER:                  -5.137
REMARK INTRA:                  -0.483
REMARK UNBOUND:                -0.429
REMARK  Name = 
REMARK  10 active torsions:
REMARK  status: ('A' for Active; 'I' for Inactive)
REMARK    1  A    between atoms: C_1  and  C_2
REMARK    2  A    between atoms: C_5  and  N_8
REMARK    3  A    between atoms: N_8  and  C_9
REMARK    4  A    between atoms: N_8  and  C_13
REMARK    5  A    between atoms: C_9  and  C_10
REMARK    6  A    between atoms: C_10  and  C_11
REMARK    7  A    between atoms: C_10  and  O_12
REMARK    8  A    between atoms: C_13  and  C_14
REMARK    9  A    between atoms: C_14  and  C_15
REMARK   10  A    between atoms: C_14  and  O_16
REMARK                            x       y       z     vdW  Elec       q    Type
REMARK                         _______ _______ _______ _____ _____    ______ ____
ROOT
ATOM      1  N   UNL     1     -29.425 -26.372  -3.193  0.00  0.00    +0.000 N 
ENDROOT
BRANCH   1   6
ATOM      2  C   UNL     1     -34.417 -25.494  -5.956  0.00  0.00    +0.000 C 
ATOM      3  C   UNL     1     -33.134 -25.724  -5.217  0.00  0.00    +0.000 A 
ATOM      4  C   UNL     1     -32.406 -24.658  -4.700  0.00  0.00    +0.000 A 
ATOM      5  C   UNL     1     -31.189 -24.878  -4.035  0.00  0.00    +0.000 A 
ATOM      6  C   UNL     1     -30.629 -26.159  -3.875  0.00  0.00    +0.000 A 
ATOM      7  C   UNL     1     -31.393 -27.213  -4.408  0.00  0.00    +0.000 A 
ATOM      8  C   UNL     1     -32.613 -27.007  -5.074  0.00  0.00    +0.000 A 
ENDBRANCH   1   6
BRANCH   1   9
ATOM      9  C   UNL     1     -29.247 -25.852  -1.816  0.00  0.00    +0.000 C 
BRANCH   9  10
ATOM     10  C   UNL     1     -28.106 -24.811  -1.711  0.00  0.00    +0.000 C 
ATOM     11  C   UNL     1     -28.624 -23.488  -1.159  0.00  0.00    +0.000 C 
BRANCH  10  12
ATOM     12  O   UNL     1     -27.063 -25.276  -0.843  0.00  0.00    +0.000 OA
ATOM     13  H   UNL     1     -26.221 -24.905  -1.158  0.00  0.00    +0.000 HD
ENDBRANCH  10  12
ENDBRANCH   9  10
ENDBRANCH   1   9
BRANCH   1  14
ATOM     14  C   UNL     1     -28.161 -26.636  -3.929  0.00  0.00    +0.000 C 
BRANCH  14  15
ATOM     15  C   UNL     1     -28.102 -25.878  -5.278  0.00  0.00    +0.000 C 
ATOM     16  C   UNL     1     -26.798 -25.115  -5.480  0.00  0.00    +0.000 C 
BRANCH  15  17
ATOM     17  O   UNL     1     -28.275 -26.760  -6.386  0.00  0.00    +0.000 OA
ATOM     18  H   UNL     1     -28.102 -26.209  -7.176  0.00  0.00    +0.000 HD
ENDBRANCH  15  17
ENDBRANCH  14  15
ENDBRANCH   1  14
TORSDOF 7
ENDMDL
MODEL 9
REMARK VINA RESULT:    -3.840     13.322     14.954
REMARK INTER + INTRA:          -5.616
REMARK INTER:                  -4.801
REMARK INTRA:                  -0.814
REMARK UNBOUND:                -0.429
REMARK  Name = 
REMARK  10 active torsions:
REMARK  status: ('A' for Active; 'I' for Inactive)
REMARK    1  A    between atoms: C_1  and  C_2
REMARK    2  A    between atoms: C_5  and  N_8
REMARK    3  A    between atoms: N_8  and  C_9
REMARK    4  A    between atoms: N_8  and  C_13
REMARK    5  A    between atoms: C_9  and  C_10
REMARK    6  A    between atoms: C_10  and  C_11
REMARK    7  A    between atoms: C_10  and  O_12
REMARK    8  A    between atoms: C_13  and  C_14
REMARK    9  A    between atoms: C_14  and  C_15
REMARK   10  A    between atoms: C_14  and  O_16
REMARK                            x       y       z     vdW  Elec       q    Type
REMARK                         _______ _______ _______ _____ _____    ______ ____
ROOT
ATOM      1  N   UNL     1     -45.321 -24.640  -3.118  0.00  0.00    +0.000 N 
ENDROOT
BRANCH   1   6
ATOM      2  C   UNL     1     -41.961 -20.196  -1.604  0.00  0.00    +0.000 C 
ATOM      3  C   UNL     1     -42.840 -21.352  -1.973  0.00  0.00    +0.000 A 
ATOM      4  C   UNL     1     -42.342 -22.651  -1.993  0.00  0.00    +0.000 A 
ATOM      5  C   UNL     1     -43.163 -23.726  -2.369  0.00  0.00    +0.000 A 
ATOM      6  C   UNL     1     -44.503 -23.560  -2.763  0.00  0.00    +0.000 A 
ATOM      7  C   UNL     1     -44.973 -22.235  -2.729  0.00  0.00    +0.000 A 
ATOM      8  C   UNL     1     -44.164 -21.150  -2.353  0.00  0.00    +0.000 A 
ENDBRANCH   1   6
BRANCH   1   9
ATOM      9  C   UNL     1     -45.647 -24.889  -4.543  0.00  0.00    +0.000 C 
BRANCH   9  10
ATOM     10  C   UNL     1     -44.617 -25.810  -5.242  0.00  0.00    +0.000 C 
ATOM     11  C   UNL     1     -43.508 -24.992  -5.894  0.00  0.00    +0.000 C 
BRANCH  10  12
ATOM     12  O   UNL     1     -44.011 -26.711  -4.304  0.00  0.00    +0.000 OA
ATOM     13  H   UNL     1     -44.541 -27.525  -4.283  0.00  0.00    +0.000 HD
ENDBRANCH  10  12
ENDBRANCH   9  10
ENDBRANCH   1   9
BRANCH   1  14
ATOM     14  C   UNL     1     -46.275 -25.234  -2.146  0.00  0.00    +0.000 C 
BRANCH  14  15
ATOM     15  C   UNL     1     -45.569 -26.157  -1.124  0.00  0.00    +0.000 C 
ATOM     16  C   UNL     1     -46.426 -26.462   0.099  0.00  0.00    +0.000 C 
BRANCH  15  17
ATOM     17  O   UNL     1     -45.182 -27.397  -1.713  0.00  0.00    +0.000 OA
ATOM     18  H   UNL     1     -45.978 -27.964  -1.654  0.00  0.00    +0.000 HD
ENDBRANCH  15  17
ENDBRANCH  14  15
ENDBRANCH   1  14
TORSDOF 7
ENDMDL
