MODEL 1
REMARK VINA RESULT:    -3.079      0.000      0.000
REMARK INTER + INTRA:          -3.402
REMARK INTER:                  -3.349
REMARK INTRA:                  -0.053
REMARK UNBOUND:                -0.053
REMARK  Name = 
REMARK  3 active torsions:
REMARK  status: ('A' for Active; 'I' for Inactive)
REMARK    1  A    between atoms: C_1  and  O_2
REMARK    2  A    between atoms: O_2  and  C_3
REMARK    3  A    between atoms: C_8  and  O_9
REMARK                            x       y       z     vdW  Elec       q    Type
REMARK                         _______ _______ _______ _____ _____    ______ ____
ROOT
ATOM      1  C   UNL     1     -42.905 -22.077  -2.559  0.00  0.00    +0.000 A 
ATOM      2  C   UNL     1     -44.127 -21.491  -2.233  0.00  0.00    +0.000 A 
ATOM      3  C   UNL     1     -44.162 -20.195  -1.703  0.00  0.00    +0.000 A 
ATOM      4  C   UNL     1     -42.980 -19.482  -1.497  0.00  0.00    +0.000 A 
ATOM      5  C   UNL     1     -41.755 -20.060  -1.821  0.00  0.00    +0.000 A 
ATOM      6  C   UNL     1     -41.729 -21.346  -2.346  0.00  0.00    +0.000 A 
ENDROOT
BRANCH   1   8
ATOM      7  C   UNL     1     -43.113 -24.425  -2.261  0.00  0.00    +0.000 C 
ATOM      8  O   UNL     1     -42.721 -23.332  -3.082  0.00  0.00    +0.000 OA
ENDBRANCH   1   8
BRANCH   6   9
ATOM      9  O   UNL     1     -40.513 -21.894  -2.656  0.00  0.00    +0.000 OA
ATOM     10  H   UNL     1     -39.925 -21.625  -1.924  0.00  0.00    +0.000 HD
ENDBRANCH   6   9
TORSDOF 2
ENDMDL
MODEL 2
REMARK VINA RESULT:    -3.052     14.173     15.272
REMARK INTER + INTRA:          -3.372
REMARK INTER:                  -3.320
REMARK INTRA:                  -0.052
REMARK UNBOUND:                -0.053
REMARK  Name = 
REMARK  3 active torsions:
REMARK  status: ('A' for Active; 'I' for Inactive)
REMARK    1  A    between atoms: C_1  and  O_2
REMARK    2  A    between atoms: O_2  and  C_3
REMARK    3  A    between atoms: C_8  and  O_9
REMARK                            x       y       z     vdW  Elec       q    Type
REMARK                         _______ _______ _______ _____ _____    ______ ____
ROOT
ATOM      1  C   UNL     1     -29.328 -29.045   0.119  0.00  0.00    +0.000 A 
ATOM      2  C   UNL     1     -28.131 -29.079  -0.595  0.00  0.00    +0.000 A 
ATOM      3  C   UNL     1     -27.885 -28.129  -1.594  0.00  0.00    +0.000 A 
ATOM      4  C   UNL     1     -28.832 -27.145  -1.884  0.00  0.00    +0.000 A 
ATOM      5  C   UNL     1     -30.030 -27.104  -1.175  0.00  0.00    +0.000 A 
ATOM      6  C   UNL     1     -30.266 -28.051  -0.185  0.00  0.00    +0.000 A 
ENDROOT
BRANCH   1   8
ATOM      7  C   UNL     1     -29.987 -31.246   0.728  0.00  0.00    +0.000 C 
ATOM      8  O   UNL     1     -29.701 -29.908   1.118  0.00  0.00    +0.000 OA
ENDBRANCH   1   8
BRANCH   6   9
ATOM      9  O   UNL     1     -31.451 -27.990   0.498  0.00  0.00    +0.000 OA
ATOM     10  H   UNL     1     -31.230 -28.277   1.405  0.00  0.00    +0.000 HD
ENDBRANCH   6   9
TORSDOF 2
ENDMDL
MODEL 3
REMARK VINA RESULT:    -2.994     13.599     14.737
REMARK INTER + INTRA:          -3.309
REMARK INTER:                  -3.270
REMARK INTRA:                  -0.039
REMARK UNBOUND:                -0.053
REMARK  Name = 
REMARK  3 active torsions:
REMARK  status: ('A' for Active; 'I' for Inactive)
REMARK    1  A    between atoms: C_1  and  O_2
REMARK    2  A    between atoms: O_2  and  C_3
REMARK    3  A    between atoms: C_8  and  O_9
REMARK                            x       y       z     vdW  Elec       q    Type
REMARK                         _______ _______ _______ _____ _____    ______ ____
ROOT
ATOM      1  C   UNL     1     -41.221 -13.007   9.039  0.00  0.00    +0.000 A 
ATOM      2  C   UNL     1     -41.040 -12.024  10.012  0.00  0.00    +0.000 A 
ATOM      3  C   UNL     1     -41.561 -12.210  11.299  0.00  0.00    +0.000 A 
ATOM      4  C   UNL     1     -42.264 -13.373  11.617  0.00  0.00    +0.000 A 
ATOM      5  C   UNL     1     -42.448 -14.360  10.651  0.00  0.00    +0.000 A 
ATOM      6  C   UNL     1     -41.929 -14.167   9.377  0.00  0.00    +0.000 A 
ENDROOT
BRANCH   1   8
ATOM      7  C   UNL     1     -39.679 -12.084   7.485  0.00  0.00    +0.000 C 
ATOM      8  O   UNL     1     -40.769 -12.959   7.745  0.00  0.00    +0.000 OA
ENDBRANCH   1   8
BRANCH   6   9
ATOM      9  O   UNL     1     -42.123 -15.151   8.444  0.00  0.00    +0.000 OA
ATOM     10  H   UNL     1     -43.087 -15.162   8.292  0.00  0.00    +0.000 HD
ENDBRANCH   6   9
TORSDOF 2
ENDMDL
MODEL 4
REMARK VINA RESULT:    -2.987      1.248      3.063
REMARK INTER + INTRA:          -3.301
REMARK INTER:                  -3.264
REMARK INTRA:                  -0.037
REMARK UNBOUND:                -0.053
REMARK  Name = 
REMARK  3 active torsions:
REMARK  status: ('A' for Active; 'I' for Inactive)
REMARK    1  A    between atoms: C_1  and  O_2
REMARK    2  A    between atoms: O_2  and  C_3
REMARK    3  A    between atoms: C_8  and  O_9
REMARK                            x       y       z     vdW  Elec       q    Type
REMARK                         _______ _______ _______ _____ _____    ______ ____
ROOT
ATOM      1  C   UNL     1     -42.435 -20.675  -1.956  0.00  0.00    +0.000 A 
ATOM      2  C   UNL     1     -43.818 -20.500  -1.928  0.00  0.00    +0.000 A 
ATOM      3  C   UNL     1     -44.662 -21.519  -2.388  0.00  0.00    +0.000 A 
ATOM      4  C   UNL     1     -44.128 -22.713  -2.877  0.00  0.00    +0.000 A 
ATOM      5  C   UNL     1     -42.747 -22.895  -2.907  0.00  0.00    +0.000 A 
ATOM      6  C   UNL     1     -41.918 -21.879  -2.450  0.00  0.00    +0.000 A 
ENDROOT
BRANCH   1   8
ATOM      7  C   UNL     1     -41.985 -18.548  -0.996  0.00  0.00    +0.000 C 
ATOM      8  O   UNL     1     -41.494 -19.767  -1.540  0.00  0.00    +0.000 OA
ENDBRANCH   1   8
BRANCH   6   9
ATOM      9  O   UNL     1     -40.565 -22.082  -2.490  0.00  0.00    +0.000 OA
ATOM     10  H   UNL     1     -40.208 -21.520  -1.776  0.00  0.00    +0.000 HD
ENDBRANCH   6   9
TORSDOF 2
ENDMDL
MODEL 5
REMARK VINA RESULT:    -2.981     12.403     13.756
REMARK INTER + INTRA:          -3.294
REMARK INTER:                  -3.244
REMARK INTRA:                  -0.051
REMARK UNBOUND:                -0.053
REMARK  Name = 
REMARK  3 active torsions:
REMARK  status: ('A' for Active; 'I' for Inactive)
REMARK    1  A    between atoms: C_1  and  O_2
REMARK    2  A    between atoms: O_2  and  C_3
REMARK    3  A    between atoms: C_8  and  O_9
REMARK                            x       y       z     vdW  Elec       q    Type
REMARK                         _______ _______ _______ _____ _____    ______ ____
ROOT
ATOM      1  C   UNL     1     -41.501 -13.940   9.231  0.00  0.00    +0.000 A 
ATOM      2  C   UNL     1     -40.597 -12.883   9.132  0.00  0.00    +0.000 A 
ATOM      3  C   UNL     1     -40.400 -12.244   7.901  0.00  0.00    +0.000 A 
ATOM      4  C   UNL     1     -41.103 -12.658   6.768  0.00  0.00    +0.000 A 
ATOM      5  C   UNL     1     -42.008 -13.713   6.859  0.00  0.00    +0.000 A 
ATOM      6  C   UNL     1     -42.197 -14.341   8.084  0.00  0.00    +0.000 A 
ENDROOT
BRANCH   1   8
ATOM      7  C   UNL     1     -42.534 -13.973  11.371  0.00  0.00    +0.000 C 
ATOM      8  O   UNL     1     -41.793 -14.654  10.366  0.00  0.00    +0.000 OA
ENDBRANCH   1   8
BRANCH   6   9
ATOM      9  O   UNL     1     -43.092 -15.375   8.149  0.00  0.00    +0.000 OA
ATOM     10  H   UNL     1     -43.738 -15.103   8.828  0.00  0.00    +0.000 HD
ENDBRANCH   6   9
TORSDOF 2
ENDMDL
MODEL 6
REMARK VINA RESULT:    -2.927     14.116     15.394
REMARK INTER + INTRA:          -3.237
REMARK INTER:                  -3.193
REMARK INTRA:                  -0.043
REMARK UNBOUND:                -0.053
REMARK  Name = 
REMARK  3 active torsions:
REMARK  status: ('A' for Active; 'I' for Inactive)
REMARK    1  A    between atoms: C_1  and  O_2
REMARK    2  A    between atoms: O_2  and  C_3
REMARK    3  A    between atoms: C_8  and  O_9
REMARK                            x       y       z     vdW  Elec       q    Type
REMARK                         _______ _______ _______ _____ _____    ______ ____
ROOT
ATOM      1  C   UNL     1     -29.366 -27.635  -1.036  0.00  0.00    +0.000 A 
ATOM      2  C   UNL     1     -28.087 -28.076  -1.376  0.00  0.00    +0.000 A 
ATOM      3  C   UNL     1     -27.506 -29.141  -0.677  0.00  0.00    +0.000 A 
ATOM      4  C   UNL     1     -28.197 -29.767   0.363  0.00  0.00    +0.000 A 
ATOM      5  C   UNL     1     -29.475 -29.332   0.708  0.00  0.00    +0.000 A 
ATOM      6  C   UNL     1     -30.043 -28.275   0.009  0.00  0.00    +0.000 A 
ENDROOT
BRANCH   1   8
ATOM      7  C   UNL     1     -29.289 -25.477  -2.028  0.00  0.00    +0.000 C 
ATOM      8  O   UNL     1     -30.054 -26.609  -1.631  0.00  0.00    +0.000 OA
ENDBRANCH   1   8
BRANCH   6   9
ATOM      9  O   UNL     1     -31.300 -27.865   0.367  0.00  0.00    +0.000 OA
ATOM     10  H   UNL     1     -31.895 -28.556   0.017  0.00  0.00    +0.000 HD
ENDBRANCH   6   9
TORSDOF 2
ENDMDL
MODEL 7
REMARK VINA RESULT:    -2.879     13.915     15.275
REMARK INTER + INTRA:          -3.184
REMARK INTER:                  -3.137
REMARK INTRA:                  -0.047
REMARK UNBOUND:                -0.053
REMARK  Name = 
REMARK  3 active torsions:
REMARK  status: ('A' for Active; 'I' for Inactive)
REMARK    1  A    between atoms: C_1  and  O_2
REMARK    2  A    between atoms: O_2  and  C_3
REMARK    3  A    between atoms: C_8  and  O_9
REMARK                            x       y       z     vdW  Elec       q    Type
REMARK                         _______ _______ _______ _____ _____    ______ ____
ROOT
ATOM      1  C   UNL     1     -30.577 -29.064  -0.331  0.00  0.00    +0.000 A 
ATOM      2  C   UNL     1     -31.209 -29.943  -1.209  0.00  0.00    +0.000 A 
ATOM      3  C   UNL     1     -31.033 -31.325  -1.063  0.00  0.00    +0.000 A 
ATOM      4  C   UNL     1     -30.227 -31.832  -0.042  0.00  0.00    +0.000 A 
ATOM      5  C   UNL     1     -29.593 -30.960   0.840  0.00  0.00    +0.000 A 
ATOM      6  C   UNL     1     -29.772 -29.591   0.687  0.00  0.00    +0.000 A 
ENDROOT
BRANCH   1   8
ATOM      7  C   UNL     1     -29.955 -27.036  -1.404  0.00  0.00    +0.000 C 
ATOM      8  O   UNL     1     -30.658 -27.695  -0.356  0.00  0.00    +0.000 OA
ENDBRANCH   1   8
BRANCH   6   9
ATOM      9  O   UNL     1     -29.138 -28.753   1.566  0.00  0.00    +0.000 OA
ATOM     10  H   UNL     1     -29.562 -28.930   2.427  0.00  0.00    +0.000 HD
ENDBRANCH   6   9
TORSDOF 2
ENDMDL
MODEL 8
REMARK VINA RESULT:    -2.850     10.846     12.013
REMARK INTER + INTRA:          -3.153
REMARK INTER:                  -3.100
REMARK INTRA:                  -0.053
REMARK UNBOUND:                -0.053
REMARK  Name = 
REMARK  3 active torsions:
REMARK  status: ('A' for Active; 'I' for Inactive)
REMARK    1  A    between atoms: C_1  and  O_2
REMARK    2  A    between atoms: O_2  and  C_3
REMARK    3  A    between atoms: C_8  and  O_9
REMARK                            x       y       z     vdW  Elec       q    Type
REMARK                         _______ _______ _______ _____ _____    ______ ____
ROOT
ATOM      1  C   UNL     1     -32.731 -26.210  -4.767  0.00  0.00    +0.000 A 
ATOM      2  C   UNL     1     -32.121 -27.463  -4.806  0.00  0.00    +0.000 A 
ATOM      3  C   UNL     1     -30.763 -27.590  -4.487  0.00  0.00    +0.000 A 
ATOM      4  C   UNL     1     -30.012 -26.469  -4.129  0.00  0.00    +0.000 A 
ATOM      5  C   UNL     1     -30.615 -25.214  -4.087  0.00  0.00    +0.000 A 
ATOM      6  C   UNL     1     -31.962 -25.097  -4.405  0.00  0.00    +0.000 A 
ENDROOT
BRANCH   1   8
ATOM      7  C   UNL     1     -34.456 -26.144  -6.400  0.00  0.00    +0.000 C 
ATOM      8  O   UNL     1     -34.045 -25.938  -5.054  0.00  0.00    +0.000 OA
ENDBRANCH   1   8
BRANCH   6   9
ATOM      9  O   UNL     1     -32.532 -23.853  -4.357  0.00  0.00    +0.000 OA
ATOM     10  H   UNL     1     -33.340 -23.929  -4.899  0.00  0.00    +0.000 HD
ENDBRANCH   6   9
TORSDOF 2
ENDMDL
MODEL 9
REMARK VINA RESULT:    -2.833     11.231     12.572
REMARK INTER + INTRA:          -3.134
REMARK INTER:                  -3.097
REMARK INTRA:                  -0.037
REMARK UNBOUND:                -0.053
REMARK  Name = 
REMARK  3 active torsions:
REMARK  status: ('A' for Active; 'I' for Inactive)
REMARK    1  A    between atoms: C_1  and  O_2
REMARK    2  A    between atoms: O_2  and  C_3
REMARK    3  A    between atoms: C_8  and  O_9
REMARK                            x       y       z     vdW  Elec       q    Type
REMARK                         _______ _______ _______ _____ _____    ______ ____
ROOT
ATOM      1  C   UNL     1     -31.118 -25.787  -4.023  0.00  0.00    +0.000 A 
ATOM      2  C   UNL     1     -30.877 -27.135  -4.282  0.00  0.00    +0.000 A 
ATOM      3  C   UNL     1     -31.756 -27.859  -5.097  0.00  0.00    +0.000 A 
ATOM      4  C   UNL     1     -32.876 -27.240  -5.656  0.00  0.00    +0.000 A 
ATOM      5  C   UNL     1     -33.122 -25.892  -5.403  0.00  0.00    +0.000 A 
ATOM      6  C   UNL     1     -32.246 -25.182  -4.592  0.00  0.00    +0.000 A 
ENDROOT
BRANCH   1   8
ATOM      7  C   UNL     1     -29.210 -25.549  -2.627  0.00  0.00    +0.000 C 
ATOM      8  O   UNL     1     -30.346 -24.960  -3.247  0.00  0.00    +0.000 OA
ENDBRANCH   1   8
BRANCH   6   9
ATOM      9  O   UNL     1     -32.509 -23.859  -4.358  0.00  0.00    +0.000 OA
ATOM     10  H   UNL     1     -32.841 -23.517  -5.210  0.00  0.00    +0.000 HD
ENDBRANCH   6   9
TORSDOF 2
ENDMDL
