MODEL 1
REMARK VINA RESULT:    -4.057      0.000      0.000
REMARK INTER + INTRA:          -5.934
REMARK INTER:                  -5.480
REMARK INTRA:                  -0.454
REMARK UNBOUND:                -0.454
REMARK  Name = 
REMARK  10 active torsions:
REMARK  status: ('A' for Active; 'I' for Inactive)
REMARK    1  A    between atoms: C_1  and  C_2
REMARK    2  A    between atoms: C_5  and  N_8
REMARK    3  A    between atoms: N_8  and  C_9
REMARK    4  A    between atoms: N_8  and  C_13
REMARK    5  A    between atoms: C_9  and  C_10
REMARK    6  A    between atoms: C_10  and  C_11
REMARK    7  A    between atoms: C_10  and  O_12
REMARK    8  A    between atoms: C_13  and  C_14
REMARK    9  A    between atoms: C_14  and  C_15
REMARK   10  A    between atoms: C_14  and  O_16
REMARK                            x       y       z     vdW  Elec       q    Type
REMARK                         _______ _______ _______ _____ _____    ______ ____
ROOT
ATOM      1  N   UNL     1     -30.658 -26.568  -2.902  0.00  0.00    +0.000 N 
ENDROOT
BRANCH   1   6
ATOM      2  C   UNL     1     -30.952 -31.516   0.057  0.00  0.00    +0.000 C 
ATOM      3  C   UNL     1     -30.900 -30.229  -0.707  0.00  0.00    +0.000 A 
ATOM      4  C   UNL     1     -31.063 -30.211  -2.088  0.00  0.00    +0.000 A 
ATOM      5  C   UNL     1     -30.983 -29.005  -2.803  0.00  0.00    +0.000 A 
ATOM      6  C   UNL     1     -30.716 -27.770  -2.185  0.00  0.00    +0.000 A 
ATOM      7  C   UNL     1     -30.559 -27.825  -0.788  0.00  0.00    +0.000 A 
ATOM      8  C   UNL     1     -30.639 -29.024  -0.061  0.00  0.00    +0.000 A 
ENDBRANCH   1   6
BRANCH   1   9
ATOM      9  C   UNL     1     -31.654 -26.286  -3.963  0.00  0.00    +0.000 C 
BRANCH   9  10
ATOM     10  C   UNL     1     -31.411 -24.930  -4.670  0.00  0.00    +0.000 C 
ATOM     11  C   UNL     1     -31.857 -24.987  -6.126  0.00  0.00    +0.000 C 
BRANCH  10  12
ATOM     12  O   UNL     1     -32.137 -23.876  -4.024  0.00  0.00    +0.000 OA
ATOM     13  H   UNL     1     -31.724 -23.711  -3.160  0.00  0.00    +0.000 HD
ENDBRANCH  10  12
ENDBRANCH   9  10
ENDBRANCH   1   9
BRANCH   1  14
ATOM     14  C   UNL     1     -29.390 -25.802  -3.016  0.00  0.00    +0.000 C 
BRANCH  14  15
ATOM     15  C   UNL     1     -29.125 -24.923  -1.771  0.00  0.00    +0.000 C 
ATOM     16  C   UNL     1     -27.654 -24.569  -1.589  0.00  0.00    +0.000 C 
BRANCH  15  17
ATOM     17  O   UNL     1     -29.869 -23.706  -1.816  0.00  0.00    +0.000 OA
ATOM     18  H   UNL     1     -30.515 -23.778  -1.084  0.00  0.00    +0.000 HD
ENDBRANCH  15  17
ENDBRANCH  14  15
ENDBRANCH   1  14
TORSDOF 7
ENDMDL
MODEL 2
REMARK VINA RESULT:    -3.985      1.089      3.279
REMARK INTER + INTRA:          -5.837
REMARK INTER:                  -5.389
REMARK INTRA:                  -0.449
REMARK UNBOUND:                -0.454
REMARK  Name = 
REMARK  10 active torsions:
REMARK  status: ('A' for Active; 'I' for Inactive)
REMARK    1  A    between atoms: C_1  and  C_2
REMARK    2  A    between atoms: C_5  and  N_8
REMARK    3  A    between atoms: N_8  and  C_9
REMARK    4  A    between atoms: N_8  and  C_13
REMARK    5  A    between atoms: C_9  and  C_10
REMARK    6  A    between atoms: C_10  and  C_11
REMARK    7  A    between atoms: C_10  and  O_12
REMARK    8  A    between atoms: C_13  and  C_14
REMARK    9  A    between atoms: C_14  and  C_15
REMARK   10  A    between atoms: C_14  and  O_16
REMARK                            x       y       z     vdW  Elec       q    Type
REMARK                         _______ _______ _______ _____ _____    ______ ____
ROOT
ATOM      1  N   UNL     1     -30.026 -26.521  -3.060  0.00  0.00    +0.000 N 
ENDROOT
BRANCH   1   6
ATOM      2  C   UNL     1     -29.518 -30.706   0.885  0.00  0.00    +0.000 C 
ATOM      3  C   UNL     1     -29.636 -29.605  -0.125  0.00  0.00    +0.000 A 
ATOM      4  C   UNL     1     -30.706 -28.717  -0.091  0.00  0.00    +0.000 A 
ATOM      5  C   UNL     1     -30.827 -27.705  -1.058  0.00  0.00    +0.000 A 
ATOM      6  C   UNL     1     -29.909 -27.545  -2.111  0.00  0.00    +0.000 A 
ATOM      7  C   UNL     1     -28.839 -28.459  -2.112  0.00  0.00    +0.000 A 
ATOM      8  C   UNL     1     -28.705 -29.474  -1.150  0.00  0.00    +0.000 A 
ENDBRANCH   1   6
BRANCH   1   9
ATOM      9  C   UNL     1     -29.089 -25.372  -3.033  0.00  0.00    +0.000 C 
BRANCH   9  10
ATOM     10  C   UNL     1     -28.850 -24.827  -1.604  0.00  0.00    +0.000 C 
ATOM     11  C   UNL     1     -27.361 -24.643  -1.333  0.00  0.00    +0.000 C 
BRANCH  10  12
ATOM     12  O   UNL     1     -29.495 -23.558  -1.422  0.00  0.00    +0.000 OA
ATOM     13  H   UNL     1     -30.411 -23.639  -1.734  0.00  0.00    +0.000 HD
ENDBRANCH  10  12
ENDBRANCH   9  10
ENDBRANCH   1   9
BRANCH   1  14
ATOM     14  C   UNL     1     -31.311 -26.263  -3.759  0.00  0.00    +0.000 C 
BRANCH  14  15
ATOM     15  C   UNL     1     -31.292 -24.930  -4.544  0.00  0.00    +0.000 C 
ATOM     16  C   UNL     1     -31.150 -25.122  -6.049  0.00  0.00    +0.000 C 
BRANCH  15  17
ATOM     17  O   UNL     1     -32.470 -24.161  -4.306  0.00  0.00    +0.000 OA
ATOM     18  H   UNL     1     -32.152 -23.329  -3.902  0.00  0.00    +0.000 HD
ENDBRANCH  15  17
ENDBRANCH  14  15
ENDBRANCH   1  14
TORSDOF 7
ENDMDL
MODEL 3
REMARK VINA RESULT:    -3.946      2.250      5.058
REMARK INTER + INTRA:          -5.785
REMARK INTER:                  -5.123
REMARK INTRA:                  -0.662
REMARK UNBOUND:                -0.454
REMARK  Name = 
REMARK  10 active torsions:
REMARK  status: ('A' for Active; 'I' for Inactive)
REMARK    1  A    between atoms: C_1  and  C_2
REMARK    2  A    between atoms: C_5  and  N_8
REMARK    3  A    between atoms: N_8  and  C_9
REMARK    4  A    between atoms: N_8  and  C_13
REMARK    5  A    between atoms: C_9  and  C_10
REMARK    6  A    between atoms: C_10  and  C_11
REMARK    7  A    between atoms: C_10  and  O_12
REMARK    8  A    between atoms: C_13  and  C_14
REMARK    9  A    between atoms: C_14  and  C_15
REMARK   10  A    between atoms: C_14  and  O_16
REMARK                            x       y       z     vdW  Elec       q    Type
REMARK                         _______ _______ _______ _____ _____    ______ ____
ROOT
ATOM      1  N   UNL     1     -29.390 -26.547  -2.998  0.00  0.00    +0.000 N 
ENDROOT
BRANCH   1   6
ATOM      2  C   UNL     1     -34.248 -25.386  -5.893  0.00  0.00    +0.000 C 
ATOM      3  C   UNL     1     -33.000 -25.686  -5.120  0.00  0.00    +0.000 A 
ATOM      4  C   UNL     1     -32.162 -24.663  -4.691  0.00  0.00    +0.000 A 
ATOM      5  C   UNL     1     -30.978 -24.952  -3.993  0.00  0.00    +0.000 A 
ATOM      6  C   UNL     1     -30.562 -26.266  -3.711  0.00  0.00    +0.000 A 
ATOM      7  C   UNL     1     -31.435 -27.275  -4.158  0.00  0.00    +0.000 A 
ATOM      8  C   UNL     1     -32.623 -27.000  -4.855  0.00  0.00    +0.000 A 
ENDBRANCH   1   6
BRANCH   1   9
ATOM      9  C   UNL     1     -28.141 -25.809  -3.301  0.00  0.00    +0.000 C 
BRANCH   9  10
ATOM     10  C   UNL     1     -27.599 -25.020  -2.084  0.00  0.00    +0.000 C 
ATOM     11  C   UNL     1     -28.728 -24.302  -1.353  0.00  0.00    +0.000 C 
BRANCH  10  12
ATOM     12  O   UNL     1     -26.951 -25.895  -1.150  0.00  0.00    +0.000 OA
ATOM     13  H   UNL     1     -27.433 -26.739  -1.144  0.00  0.00    +0.000 HD
ENDBRANCH  10  12
ENDBRANCH   9  10
ENDBRANCH   1   9
BRANCH   1  14
ATOM     14  C   UNL     1     -29.194 -27.857  -2.326  0.00  0.00    +0.000 C 
BRANCH  14  15
ATOM     15  C   UNL     1     -29.796 -27.879  -0.900  0.00  0.00    +0.000 C 
ATOM     16  C   UNL     1     -30.783 -29.020  -0.684  0.00  0.00    +0.000 C 
BRANCH  15  17
ATOM     17  O   UNL     1     -28.782 -27.976   0.099  0.00  0.00    +0.000 OA
ATOM     18  H   UNL     1     -29.093 -27.407   0.831  0.00  0.00    +0.000 HD
ENDBRANCH  15  17
ENDBRANCH  14  15
ENDBRANCH   1  14
TORSDOF 7
ENDMDL
MODEL 4
REMARK VINA RESULT:    -3.925      2.871      4.603
REMARK INTER + INTRA:          -5.756
REMARK INTER:                  -5.223
REMARK INTRA:                  -0.533
REMARK UNBOUND:                -0.454
REMARK  Name = 
REMARK  10 active torsions:
REMARK  status: ('A' for Active; 'I' for Inactive)
REMARK    1  A    between atoms: C_1  and  C_2
REMARK    2  A    between atoms: C_5  and  N_8
REMARK    3  A    between atoms: N_8  and  C_9
REMARK    4  A    between atoms: N_8  and  C_13
REMARK    5  A    between atoms: C_9  and  C_10
REMARK    6  A    between atoms: C_10  and  C_11
REMARK    7  A    between atoms: C_10  and  O_12
REMARK    8  A    between atoms: C_13  and  C_14
REMARK    9  A    between atoms: C_14  and  C_15
REMARK   10  A    between atoms: C_14  and  O_16
REMARK                            x       y       z     vdW  Elec       q    Type
REMARK                         _______ _______ _______ _____ _____    ______ ____
ROOT
ATOM      1  N   UNL     1     -31.361 -25.625  -6.041  0.00  0.00    +0.000 N 
ENDROOT
BRANCH   1   6
ATOM      2  C   UNL     1     -28.504 -27.512  -1.393  0.00  0.00    +0.000 C 
ATOM      3  C   UNL     1     -29.266 -27.031  -2.589  0.00  0.00    +0.000 A 
ATOM      4  C   UNL     1     -29.422 -27.840  -3.710  0.00  0.00    +0.000 A 
ATOM      5  C   UNL     1     -30.112 -27.372  -4.840  0.00  0.00    +0.000 A 
ATOM      6  C   UNL     1     -30.657 -26.078  -4.918  0.00  0.00    +0.000 A 
ATOM      7  C   UNL     1     -30.482 -25.289  -3.767  0.00  0.00    +0.000 A 
ATOM      8  C   UNL     1     -29.796 -25.744  -2.629  0.00  0.00    +0.000 A 
ENDBRANCH   1   6
BRANCH   1   9
ATOM      9  C   UNL     1     -31.091 -24.275  -6.593  0.00  0.00    +0.000 C 
BRANCH   9  10
ATOM     10  C   UNL     1     -29.693 -24.163  -7.248  0.00  0.00    +0.000 C 
ATOM     11  C   UNL     1     -29.578 -25.092  -8.451  0.00  0.00    +0.000 C 
BRANCH  10  12
ATOM     12  O   UNL     1     -29.440 -22.824  -7.696  0.00  0.00    +0.000 OA
ATOM     13  H   UNL     1     -28.479 -22.682  -7.691  0.00  0.00    +0.000 HD
ENDBRANCH  10  12
ENDBRANCH   9  10
ENDBRANCH   1   9
BRANCH   1  14
ATOM     14  C   UNL     1     -32.687 -26.192  -6.398  0.00  0.00    +0.000 C 
BRANCH  14  15
ATOM     15  C   UNL     1     -33.850 -25.425  -5.725  0.00  0.00    +0.000 C 
ATOM     16  C   UNL     1     -35.164 -25.538  -6.488  0.00  0.00    +0.000 C 
BRANCH  15  17
ATOM     17  O   UNL     1     -34.075 -25.873  -4.389  0.00  0.00    +0.000 OA
ATOM     18  H   UNL     1     -34.406 -25.087  -3.911  0.00  0.00    +0.000 HD
ENDBRANCH  15  17
ENDBRANCH  14  15
ENDBRANCH   1  14
TORSDOF 7
ENDMDL
MODEL 5
REMARK VINA RESULT:    -3.916      1.971      5.039
REMARK INTER + INTRA:          -5.744
REMARK INTER:                  -5.280
REMARK INTRA:                  -0.464
REMARK UNBOUND:                -0.454
REMARK  Name = 
REMARK  10 active torsions:
REMARK  status: ('A' for Active; 'I' for Inactive)
REMARK    1  A    between atoms: C_1  and  C_2
REMARK    2  A    between atoms: C_5  and  N_8
REMARK    3  A    between atoms: N_8  and  C_9
REMARK    4  A    between atoms: N_8  and  C_13
REMARK    5  A    between atoms: C_9  and  C_10
REMARK    6  A    between atoms: C_10  and  C_11
REMARK    7  A    between atoms: C_10  and  O_12
REMARK    8  A    between atoms: C_13  and  C_14
REMARK    9  A    between atoms: C_14  and  C_15
REMARK   10  A    between atoms: C_14  and  O_16
REMARK                            x       y       z     vdW  Elec       q    Type
REMARK                         _______ _______ _______ _____ _____    ______ ____
ROOT
ATOM      1  N   UNL     1     -30.377 -26.577  -3.128  0.00  0.00    +0.000 N 
ENDROOT
BRANCH   1   6
ATOM      2  C   UNL     1     -34.659 -25.011  -6.670  0.00  0.00    +0.000 C 
ATOM      3  C   UNL     1     -33.564 -25.417  -5.732  0.00  0.00    +0.000 A 
ATOM      4  C   UNL     1     -32.778 -24.463  -5.094  0.00  0.00    +0.000 A 
ATOM      5  C   UNL     1     -31.734 -24.851  -4.239  0.00  0.00    +0.000 A 
ATOM      6  C   UNL     1     -31.408 -26.197  -3.997  0.00  0.00    +0.000 A 
ATOM      7  C   UNL     1     -32.224 -27.135  -4.657  0.00  0.00    +0.000 A 
ATOM      8  C   UNL     1     -33.273 -26.761  -5.513  0.00  0.00    +0.000 A 
ENDBRANCH   1   6
BRANCH   1   9
ATOM      9  C   UNL     1     -30.690 -27.318  -1.883  0.00  0.00    +0.000 C 
BRANCH   9  10
ATOM     10  C   UNL     1     -30.521 -28.849  -2.036  0.00  0.00    +0.000 C 
ATOM     11  C   UNL     1     -29.518 -29.391  -1.024  0.00  0.00    +0.000 C 
BRANCH  10  12
ATOM     12  O   UNL     1     -31.768 -29.528  -1.833  0.00  0.00    +0.000 OA
ATOM     13  H   UNL     1     -31.781 -29.869  -0.923  0.00  0.00    +0.000 HD
ENDBRANCH  10  12
ENDBRANCH   9  10
ENDBRANCH   1   9
BRANCH   1  14
ATOM     14  C   UNL     1     -29.077 -25.859  -3.117  0.00  0.00    +0.000 C 
BRANCH  14  15
ATOM     15  C   UNL     1     -28.759 -25.247  -1.732  0.00  0.00    +0.000 C 
ATOM     16  C   UNL     1     -27.281 -24.929  -1.542  0.00  0.00    +0.000 C 
BRANCH  15  17
ATOM     17  O   UNL     1     -29.501 -24.050  -1.501  0.00  0.00    +0.000 OA
ATOM     18  H   UNL     1     -30.112 -24.269  -0.769  0.00  0.00    +0.000 HD
ENDBRANCH  15  17
ENDBRANCH  14  15
ENDBRANCH   1  14
TORSDOF 7
ENDMDL
MODEL 6
REMARK VINA RESULT:    -3.878      2.411      5.801
REMARK INTER + INTRA:          -5.693
REMARK INTER:                  -5.031
REMARK INTRA:                  -0.661
REMARK UNBOUND:                -0.454
REMARK  Name = 
REMARK  10 active torsions:
REMARK  status: ('A' for Active; 'I' for Inactive)
REMARK    1  A    between atoms: C_1  and  C_2
REMARK    2  A    between atoms: C_5  and  N_8
REMARK    3  A    between atoms: N_8  and  C_9
REMARK    4  A    between atoms: N_8  and  C_13
REMARK    5  A    between atoms: C_9  and  C_10
REMARK    6  A    between atoms: C_10  and  C_11
REMARK    7  A    between atoms: C_10  and  O_12
REMARK    8  A    between atoms: C_13  and  C_14
REMARK    9  A    between atoms: C_14  and  C_15
REMARK   10  A    between atoms: C_14  and  O_16
REMARK                            x       y       z     vdW  Elec       q    Type
REMARK                         _______ _______ _______ _____ _____    ______ ____
ROOT
ATOM      1  N   UNL     1     -29.391 -26.505  -3.037  0.00  0.00    +0.000 N 
ENDROOT
BRANCH   1   6
ATOM      2  C   UNL     1     -29.500 -23.980  -8.227  0.00  0.00    +0.000 C 
ATOM      3  C   UNL     1     -29.465 -24.613  -6.870  0.00  0.00    +0.000 A 
ATOM      4  C   UNL     1     -28.314 -25.241  -6.404  0.00  0.00    +0.000 A 
ATOM      5  C   UNL     1     -28.296 -25.859  -5.143  0.00  0.00    +0.000 A 
ATOM      6  C   UNL     1     -29.422 -25.903  -4.301  0.00  0.00    +0.000 A 
ATOM      7  C   UNL     1     -30.566 -25.257  -4.803  0.00  0.00    +0.000 A 
ATOM      8  C   UNL     1     -30.597 -24.633  -6.061  0.00  0.00    +0.000 A 
ENDBRANCH   1   6
BRANCH   1   9
ATOM      9  C   UNL     1     -29.463 -25.669  -1.814  0.00  0.00    +0.000 C 
BRANCH   9  10
ATOM     10  C   UNL     1     -28.262 -24.701  -1.677  0.00  0.00    +0.000 C 
ATOM     11  C   UNL     1     -28.703 -23.366  -1.090  0.00  0.00    +0.000 C 
BRANCH  10  12
ATOM     12  O   UNL     1     -27.252 -25.251  -0.820  0.00  0.00    +0.000 OA
ATOM     13  H   UNL     1     -27.590 -26.085  -0.453  0.00  0.00    +0.000 HD
ENDBRANCH  10  12
ENDBRANCH   9  10
ENDBRANCH   1   9
BRANCH   1  14
ATOM     14  C   UNL     1     -28.792 -27.850  -2.839  0.00  0.00    +0.000 C 
BRANCH  14  15
ATOM     15  C   UNL     1     -28.912 -28.334  -1.374  0.00  0.00    +0.000 C 
ATOM     16  C   UNL     1     -29.467 -29.748  -1.253  0.00  0.00    +0.000 C 
BRANCH  15  17
ATOM     17  O   UNL     1     -27.655 -28.293  -0.701  0.00  0.00    +0.000 OA
ATOM     18  H   UNL     1     -27.332 -27.378  -0.824  0.00  0.00    +0.000 HD
ENDBRANCH  15  17
ENDBRANCH  14  15
ENDBRANCH   1  14
TORSDOF 7
ENDMDL
MODEL 7
REMARK VINA RESULT:    -3.850      2.378      4.728
REMARK INTER + INTRA:          -5.655
REMARK INTER:                  -5.106
REMARK INTRA:                  -0.549
REMARK UNBOUND:                -0.454
REMARK  Name = 
REMARK  10 active torsions:
REMARK  status: ('A' for Active; 'I' for Inactive)
REMARK    1  A    between atoms: C_1  and  C_2
REMARK    2  A    between atoms: C_5  and  N_8
REMARK    3  A    between atoms: N_8  and  C_9
REMARK    4  A    between atoms: N_8  and  C_13
REMARK    5  A    between atoms: C_9  and  C_10
REMARK    6  A    between atoms: C_10  and  C_11
REMARK    7  A    between atoms: C_10  and  O_12
REMARK    8  A    between atoms: C_13  and  C_14
REMARK    9  A    between atoms: C_14  and  C_15
REMARK   10  A    between atoms: C_14  and  O_16
REMARK                            x       y       z     vdW  Elec       q    Type
REMARK                         _______ _______ _______ _____ _____    ______ ____
ROOT
ATOM      1  N   UNL     1     -29.440 -26.753  -2.494  0.00  0.00    +0.000 N 
ENDROOT
BRANCH   1   6
ATOM      2  C   UNL     1     -33.937 -25.308  -5.813  0.00  0.00    +0.000 C 
ATOM      3  C   UNL     1     -32.756 -25.684  -4.972  0.00  0.00    +0.000 A 
ATOM      4  C   UNL     1     -32.506 -27.013  -4.647  0.00  0.00    +0.000 A 
ATOM      5  C   UNL     1     -31.414 -27.358  -3.833  0.00  0.00    +0.000 A 
ATOM      6  C   UNL     1     -30.538 -26.401  -3.289  0.00  0.00    +0.000 A 
ATOM      7  C   UNL     1     -30.820 -25.068  -3.641  0.00  0.00    +0.000 A 
ATOM      8  C   UNL     1     -31.907 -24.710  -4.455  0.00  0.00    +0.000 A 
ENDBRANCH   1   6
BRANCH   1   9
ATOM      9  C   UNL     1     -28.356 -27.595  -3.055  0.00  0.00    +0.000 C 
BRANCH   9  10
ATOM     10  C   UNL     1     -27.259 -26.766  -3.767  0.00  0.00    +0.000 C 
ATOM     11  C   UNL     1     -27.530 -26.675  -5.264  0.00  0.00    +0.000 C 
BRANCH  10  12
ATOM     12  O   UNL     1     -27.202 -25.431  -3.244  0.00  0.00    +0.000 OA
ATOM     13  H   UNL     1     -28.061 -25.231  -2.835  0.00  0.00    +0.000 HD
ENDBRANCH  10  12
ENDBRANCH   9  10
ENDBRANCH   1   9
BRANCH   1  14
ATOM     14  C   UNL     1     -29.536 -26.764  -1.012  0.00  0.00    +0.000 C 
BRANCH  14  15
ATOM     15  C   UNL     1     -30.295 -28.005  -0.484  0.00  0.00    +0.000 C 
ATOM     16  C   UNL     1     -29.409 -28.957   0.310  0.00  0.00    +0.000 C 
BRANCH  15  17
ATOM     17  O   UNL     1     -31.399 -27.637   0.341  0.00  0.00    +0.000 OA
ATOM     18  H   UNL     1     -31.364 -26.660   0.388  0.00  0.00    +0.000 HD
ENDBRANCH  15  17
ENDBRANCH  14  15
ENDBRANCH   1  14
TORSDOF 7
ENDMDL
MODEL 8
REMARK VINA RESULT:    -3.825     13.326     14.969
REMARK INTER + INTRA:          -5.621
REMARK INTER:                  -4.796
REMARK INTRA:                  -0.825
REMARK UNBOUND:                -0.454
REMARK  Name = 
REMARK  10 active torsions:
REMARK  status: ('A' for Active; 'I' for Inactive)
REMARK    1  A    between atoms: C_1  and  C_2
REMARK    2  A    between atoms: C_5  and  N_8
REMARK    3  A    between atoms: N_8  and  C_9
REMARK    4  A    between atoms: N_8  and  C_13
REMARK    5  A    between atoms: C_9  and  C_10
REMARK    6  A    between atoms: C_10  and  C_11
REMARK    7  A    between atoms: C_10  and  O_12
REMARK    8  A    between atoms: C_13  and  C_14
REMARK    9  A    between atoms: C_14  and  C_15
REMARK   10  A    between atoms: C_14  and  O_16
REMARK                            x       y       z     vdW  Elec       q    Type
REMARK                         _______ _______ _______ _____ _____    ______ ____
ROOT
ATOM      1  N   UNL     1     -45.299 -24.620  -3.220  0.00  0.00    +0.000 N 
ENDROOT
BRANCH   1   6
ATOM      2  C   UNL     1     -42.111 -20.152  -1.430  0.00  0.00    +0.000 C 
ATOM      3  C   UNL     1     -42.946 -21.315  -1.871  0.00  0.00    +0.000 A 
ATOM      4  C   UNL     1     -42.413 -22.598  -1.923  0.00  0.00    +0.000 A 
ATOM      5  C   UNL     1     -43.192 -23.680  -2.366  0.00  0.00    +0.000 A 
ATOM      6  C   UNL     1     -44.522 -23.533  -2.798  0.00  0.00    +0.000 A 
ATOM      7  C   UNL     1     -45.029 -22.223  -2.730  0.00  0.00    +0.000 A 
ATOM      8  C   UNL     1     -44.262 -21.133  -2.287  0.00  0.00    +0.000 A 
ENDBRANCH   1   6
BRANCH   1   9
ATOM      9  C   UNL     1     -45.540 -24.844  -4.666  0.00  0.00    +0.000 C 
BRANCH   9  10
ATOM     10  C   UNL     1     -44.464 -25.744  -5.321  0.00  0.00    +0.000 C 
ATOM     11  C   UNL     1     -43.360 -24.902  -5.952  0.00  0.00    +0.000 C 
BRANCH  10  12
ATOM     12  O   UNL     1     -43.861 -26.613  -4.353  0.00  0.00    +0.000 OA
ATOM     13  H   UNL     1     -43.902 -26.174  -3.487  0.00  0.00    +0.000 HD
ENDBRANCH  10  12
ENDBRANCH   9  10
ENDBRANCH   1   9
BRANCH   1  14
ATOM     14  C   UNL     1     -46.295 -25.250  -2.316  0.00  0.00    +0.000 C 
BRANCH  14  15
ATOM     15  C   UNL     1     -45.626 -26.138  -1.239  0.00  0.00    +0.000 C 
ATOM     16  C   UNL     1     -46.565 -26.503  -0.096  0.00  0.00    +0.000 C 
BRANCH  15  17
ATOM     17  O   UNL     1     -45.117 -27.349  -1.796  0.00  0.00    +0.000 OA
ATOM     18  H   UNL     1     -44.569 -27.743  -1.087  0.00  0.00    +0.000 HD
ENDBRANCH  15  17
ENDBRANCH  14  15
ENDBRANCH   1  14
TORSDOF 7
ENDMDL
MODEL 9
REMARK VINA RESULT:    -3.781      3.150      4.803
REMARK INTER + INTRA:          -5.561
REMARK INTER:                  -4.879
REMARK INTRA:                  -0.682
REMARK UNBOUND:                -0.454
REMARK  Name = 
REMARK  10 active torsions:
REMARK  status: ('A' for Active; 'I' for Inactive)
REMARK    1  A    between atoms: C_1  and  C_2
REMARK    2  A    between atoms: C_5  and  N_8
REMARK    3  A    between atoms: N_8  and  C_9
REMARK    4  A    between atoms: N_8  and  C_13
REMARK    5  A    between atoms: C_9  and  C_10
REMARK    6  A    between atoms: C_10  and  C_11
REMARK    7  A    between atoms: C_10  and  O_12
REMARK    8  A    between atoms: C_13  and  C_14
REMARK    9  A    between atoms: C_14  and  C_15
REMARK   10  A    between atoms: C_14  and  O_16
REMARK                            x       y       z     vdW  Elec       q    Type
REMARK                         _______ _______ _______ _____ _____    ______ ____
ROOT
ATOM      1  N   UNL     1     -29.626 -25.892  -3.533  0.00  0.00    +0.000 N 
ENDROOT
BRANCH   1   6
ATOM      2  C   UNL     1     -34.818 -25.836  -6.057  0.00  0.00    +0.000 C 
ATOM      3  C   UNL     1     -33.460 -25.848  -5.424  0.00  0.00    +0.000 A 
ATOM      4  C   UNL     1     -32.793 -27.045  -5.189  0.00  0.00    +0.000 A 
ATOM      5  C   UNL     1     -31.533 -27.052  -4.569  0.00  0.00    +0.000 A 
ATOM      6  C   UNL     1     -30.892 -25.878  -4.134  0.00  0.00    +0.000 A 
ATOM      7  C   UNL     1     -31.595 -24.687  -4.390  0.00  0.00    +0.000 A 
ATOM      8  C   UNL     1     -32.854 -24.665  -5.011  0.00  0.00    +0.000 A 
ENDBRANCH   1   6
BRANCH   1   9
ATOM      9  C   UNL     1     -28.505 -26.618  -4.177  0.00  0.00    +0.000 C 
BRANCH   9  10
ATOM     10  C   UNL     1     -28.126 -27.920  -3.430  0.00  0.00    +0.000 C 
ATOM     11  C   UNL     1     -28.156 -29.118  -4.372  0.00  0.00    +0.000 C 
BRANCH  10  12
ATOM     12  O   UNL     1     -26.808 -27.827  -2.871  0.00  0.00    +0.000 OA
ATOM     13  H   UNL     1     -26.336 -28.651  -3.075  0.00  0.00    +0.000 HD
ENDBRANCH  10  12
ENDBRANCH   9  10
ENDBRANCH   1   9
BRANCH   1  14
ATOM     14  C   UNL     1     -29.465 -25.661  -2.075  0.00  0.00    +0.000 C 
BRANCH  14  15
ATOM     15  C   UNL     1     -28.257 -24.748  -1.757  0.00  0.00    +0.000 C 
ATOM     16  C   UNL     1     -28.654 -23.446  -1.071  0.00  0.00    +0.000 C 
BRANCH  15  17
ATOM     17  O   UNL     1     -27.299 -25.408  -0.932  0.00  0.00    +0.000 OA
ATOM     18  H   UNL     1     -27.188 -26.294  -1.332  0.00  0.00    +0.000 HD
ENDBRANCH  15  17
ENDBRANCH  14  15
ENDBRANCH   1  14
TORSDOF 7
ENDMDL
