MODEL 1
REMARK VINA RESULT:    -3.084      0.000      0.000
REMARK INTER + INTRA:          -3.407
REMARK INTER:                  -3.355
REMARK INTRA:                  -0.052
REMARK UNBOUND:                -0.052
REMARK  Name = 
REMARK  3 active torsions:
REMARK  status: ('A' for Active; 'I' for Inactive)
REMARK    1  A    between atoms: C_1  and  O_2
REMARK    2  A    between atoms: O_2  and  C_3
REMARK    3  A    between atoms: C_8  and  O_9
REMARK                            x       y       z     vdW  Elec       q    Type
REMARK                         _______ _______ _______ _____ _____    ______ ____
ROOT
ATOM      1  C   UNL     1     -42.871 -22.122  -2.542  0.00  0.00    +0.000 A 
ATOM      2  C   UNL     1     -44.100 -21.534  -2.248  0.00  0.00    +0.000 A 
ATOM      3  C   UNL     1     -44.147 -20.235  -1.726  0.00  0.00    +0.000 A 
ATOM      4  C   UNL     1     -42.970 -19.521  -1.496  0.00  0.00    +0.000 A 
ATOM      5  C   UNL     1     -41.738 -20.102  -1.787  0.00  0.00    +0.000 A 
ATOM      6  C   UNL     1     -41.700 -21.391  -2.304  0.00  0.00    +0.000 A 
ENDROOT
BRANCH   1   8
ATOM      7  C   UNL     1     -43.132 -24.467  -2.257  0.00  0.00    +0.000 C 
ATOM      8  O   UNL     1     -42.675 -23.380  -3.053  0.00  0.00    +0.000 OA
ENDBRANCH   1   8
BRANCH   6   9
ATOM      9  O   UNL     1     -40.477 -21.941  -2.582  0.00  0.00    +0.000 OA
ATOM     10  H   UNL     1     -40.476 -22.795  -2.109  0.00  0.00    +0.000 HD
ENDBRANCH   6   9
TORSDOF 2
ENDMDL
MODEL 2
REMARK VINA RESULT:    -3.036     14.100     15.197
REMARK INTER + INTRA:          -3.354
REMARK INTER:                  -3.302
REMARK INTRA:                  -0.053
REMARK UNBOUND:                -0.052
REMARK  Name = 
REMARK  3 active torsions:
REMARK  status: ('A' for Active; 'I' for Inactive)
REMARK    1  A    between atoms: C_1  and  O_2
REMARK    2  A    between atoms: O_2  and  C_3
REMARK    3  A    between atoms: C_8  and  O_9
REMARK                            x       y       z     vdW  Elec       q    Type
REMARK                         _______ _______ _______ _____ _____    ______ ____
ROOT
ATOM      1  C   UNL     1     -29.441 -29.144   0.123  0.00  0.00    +0.000 A 
ATOM      2  C   UNL     1     -28.227 -29.205  -0.559  0.00  0.00    +0.000 A 
ATOM      3  C   UNL     1     -27.899 -28.214  -1.493  0.00  0.00    +0.000 A 
ATOM      4  C   UNL     1     -28.780 -27.162  -1.748  0.00  0.00    +0.000 A 
ATOM      5  C   UNL     1     -29.995 -27.094  -1.070  0.00  0.00    +0.000 A 
ATOM      6  C   UNL     1     -30.313 -28.082  -0.146  0.00  0.00    +0.000 A 
ENDROOT
BRANCH   1   8
ATOM      7  C   UNL     1     -30.194 -31.350   0.590  0.00  0.00    +0.000 C 
ATOM      8  O   UNL     1     -29.892 -30.041   1.059  0.00  0.00    +0.000 OA
ENDBRANCH   1   8
BRANCH   6   9
ATOM      9  O   UNL     1     -31.513 -27.994   0.508  0.00  0.00    +0.000 OA
ATOM     10  H   UNL     1     -31.277 -27.789   1.433  0.00  0.00    +0.000 HD
ENDBRANCH   6   9
TORSDOF 2
ENDMDL
MODEL 3
REMARK VINA RESULT:    -3.007     12.711     13.957
REMARK INTER + INTRA:          -3.323
REMARK INTER:                  -3.277
REMARK INTRA:                  -0.046
REMARK UNBOUND:                -0.052
REMARK  Name = 
REMARK  3 active torsions:
REMARK  status: ('A' for Active; 'I' for Inactive)
REMARK    1  A    between atoms: C_1  and  O_2
REMARK    2  A    between atoms: O_2  and  C_3
REMARK    3  A    between atoms: C_8  and  O_9
REMARK                            x       y       z     vdW  Elec       q    Type
REMARK                         _______ _______ _______ _____ _____    ______ ____
ROOT
ATOM      1  C   UNL     1     -29.789 -24.909  -2.846  0.00  0.00    +0.000 A 
ATOM      2  C   UNL     1     -28.877 -25.953  -2.993  0.00  0.00    +0.000 A 
ATOM      3  C   UNL     1     -27.702 -25.969  -2.231  0.00  0.00    +0.000 A 
ATOM      4  C   UNL     1     -27.433 -24.943  -1.323  0.00  0.00    +0.000 A 
ATOM      5  C   UNL     1     -28.339 -23.896  -1.170  0.00  0.00    +0.000 A 
ATOM      6  C   UNL     1     -29.502 -23.889  -1.930  0.00  0.00    +0.000 A 
ENDROOT
BRANCH   1   8
ATOM      7  C   UNL     1     -30.942 -25.027  -4.920  0.00  0.00    +0.000 C 
ATOM      8  O   UNL     1     -30.973 -24.764  -3.522  0.00  0.00    +0.000 OA
ENDBRANCH   1   8
BRANCH   6   9
ATOM      9  O   UNL     1     -30.378 -22.849  -1.762  0.00  0.00    +0.000 OA
ATOM     10  H   UNL     1     -31.240 -23.200  -2.057  0.00  0.00    +0.000 HD
ENDBRANCH   6   9
TORSDOF 2
ENDMDL
MODEL 4
REMARK VINA RESULT:    -2.987     13.583     14.716
REMARK INTER + INTRA:          -3.301
REMARK INTER:                  -3.262
REMARK INTRA:                  -0.039
REMARK UNBOUND:                -0.052
REMARK  Name = 
REMARK  3 active torsions:
REMARK  status: ('A' for Active; 'I' for Inactive)
REMARK    1  A    between atoms: C_1  and  O_2
REMARK    2  A    between atoms: O_2  and  C_3
REMARK    3  A    between atoms: C_8  and  O_9
REMARK                            x       y       z     vdW  Elec       q    Type
REMARK                         _______ _______ _______ _____ _____    ______ ____
ROOT
ATOM      1  C   UNL     1     -41.184 -13.020   9.016  0.00  0.00    +0.000 A 
ATOM      2  C   UNL     1     -41.048 -12.034   9.993  0.00  0.00    +0.000 A 
ATOM      3  C   UNL     1     -41.595 -12.232  11.267  0.00  0.00    +0.000 A 
ATOM      4  C   UNL     1     -42.279 -13.412  11.568  0.00  0.00    +0.000 A 
ATOM      5  C   UNL     1     -42.418 -14.401  10.597  0.00  0.00    +0.000 A 
ATOM      6  C   UNL     1     -41.872 -14.196   9.337  0.00  0.00    +0.000 A 
ENDROOT
BRANCH   1   8
ATOM      7  C   UNL     1     -39.638 -12.048   7.495  0.00  0.00    +0.000 C 
ATOM      8  O   UNL     1     -40.702 -12.961   7.732  0.00  0.00    +0.000 OA
ENDBRANCH   1   8
BRANCH   6   9
ATOM      9  O   UNL     1     -42.022 -15.183   8.399  0.00  0.00    +0.000 OA
ATOM     10  H   UNL     1     -41.663 -15.985   8.823  0.00  0.00    +0.000 HD
ENDBRANCH   6   9
TORSDOF 2
ENDMDL
MODEL 5
REMARK VINA RESULT:    -2.979     12.399     13.753
REMARK INTER + INTRA:          -3.293
REMARK INTER:                  -3.253
REMARK INTRA:                  -0.039
REMARK UNBOUND:                -0.052
REMARK  Name = 
REMARK  3 active torsions:
REMARK  status: ('A' for Active; 'I' for Inactive)
REMARK    1  A    between atoms: C_1  and  O_2
REMARK    2  A    between atoms: O_2  and  C_3
REMARK    3  A    between atoms: C_8  and  O_9
REMARK                            x       y       z     vdW  Elec       q    Type
REMARK                         _______ _______ _______ _____ _____    ______ ____
ROOT
ATOM      1  C   UNL     1     -41.505 -13.965   9.232  0.00  0.00    +0.000 A 
ATOM      2  C   UNL     1     -40.578 -12.928   9.133  0.00  0.00    +0.000 A 
ATOM      3  C   UNL     1     -40.382 -12.279   7.907  0.00  0.00    +0.000 A 
ATOM      4  C   UNL     1     -41.108 -12.664   6.779  0.00  0.00    +0.000 A 
ATOM      5  C   UNL     1     -42.036 -13.699   6.870  0.00  0.00    +0.000 A 
ATOM      6  C   UNL     1     -42.224 -14.337   8.089  0.00  0.00    +0.000 A 
ENDROOT
BRANCH   1   8
ATOM      7  C   UNL     1     -42.604 -14.035  11.337  0.00  0.00    +0.000 C 
ATOM      8  O   UNL     1     -41.798 -14.685  10.362  0.00  0.00    +0.000 OA
ENDBRANCH   1   8
BRANCH   6   9
ATOM      9  O   UNL     1     -43.142 -15.351   8.154  0.00  0.00    +0.000 OA
ATOM     10  H   UNL     1     -43.993 -14.931   7.927  0.00  0.00    +0.000 HD
ENDBRANCH   6   9
TORSDOF 2
ENDMDL
MODEL 6
REMARK VINA RESULT:    -2.933     14.056     15.327
REMARK INTER + INTRA:          -3.242
REMARK INTER:                  -3.199
REMARK INTRA:                  -0.043
REMARK UNBOUND:                -0.052
REMARK  Name = 
REMARK  3 active torsions:
REMARK  status: ('A' for Active; 'I' for Inactive)
REMARK    1  A    between atoms: C_1  and  O_2
REMARK    2  A    between atoms: O_2  and  C_3
REMARK    3  A    between atoms: C_8  and  O_9
REMARK                            x       y       z     vdW  Elec       q    Type
REMARK                         _______ _______ _______ _____ _____    ______ ____
ROOT
ATOM      1  C   UNL     1     -29.417 -27.690  -1.055  0.00  0.00    +0.000 A 
ATOM      2  C   UNL     1     -28.142 -28.139  -1.394  0.00  0.00    +0.000 A 
ATOM      3  C   UNL     1     -27.545 -29.171  -0.660  0.00  0.00    +0.000 A 
ATOM      4  C   UNL     1     -28.218 -29.757   0.414  0.00  0.00    +0.000 A 
ATOM      5  C   UNL     1     -29.493 -29.314   0.759  0.00  0.00    +0.000 A 
ATOM      6  C   UNL     1     -30.077 -28.289   0.025  0.00  0.00    +0.000 A 
ENDROOT
BRANCH   1   8
ATOM      7  C   UNL     1     -29.364 -25.579  -2.145  0.00  0.00    +0.000 C 
ATOM      8  O   UNL     1     -30.119 -26.692  -1.682  0.00  0.00    +0.000 OA
ENDBRANCH   1   8
BRANCH   6   9
ATOM      9  O   UNL     1     -31.331 -27.871   0.383  0.00  0.00    +0.000 OA
ATOM     10  H   UNL     1     -31.933 -28.341  -0.225  0.00  0.00    +0.000 HD
ENDBRANCH   6   9
TORSDOF 2
ENDMDL
MODEL 7
REMARK VINA RESULT:    -2.931      1.301      3.033
REMARK INTER + INTRA:          -3.240
REMARK INTER:                  -3.188
REMARK INTRA:                  -0.052
REMARK UNBOUND:                -0.052
REMARK  Name = 
REMARK  3 active torsions:
REMARK  status: ('A' for Active; 'I' for Inactive)
REMARK    1  A    between atoms: C_1  and  O_2
REMARK    2  A    between atoms: O_2  and  C_3
REMARK    3  A    between atoms: C_8  and  O_9
REMARK                            x       y       z     vdW  Elec       q    Type
REMARK                         _______ _______ _______ _____ _____    ______ ____
ROOT
ATOM      1  C   UNL     1     -42.583 -20.727  -2.393  0.00  0.00    +0.000 A 
ATOM      2  C   UNL     1     -43.977 -20.710  -2.407  0.00  0.00    +0.000 A 
ATOM      3  C   UNL     1     -44.690 -21.907  -2.553  0.00  0.00    +0.000 A 
ATOM      4  C   UNL     1     -44.014 -23.122  -2.685  0.00  0.00    +0.000 A 
ATOM      5  C   UNL     1     -42.622 -23.147  -2.671  0.00  0.00    +0.000 A 
ATOM      6  C   UNL     1     -41.923 -21.955  -2.526  0.00  0.00    +0.000 A 
ENDROOT
BRANCH   1   8
ATOM      7  C   UNL     1     -41.882 -18.895  -1.052  0.00  0.00    +0.000 C 
ATOM      8  O   UNL     1     -41.761 -19.637  -2.259  0.00  0.00    +0.000 OA
ENDBRANCH   1   8
BRANCH   6   9
ATOM      9  O   UNL     1     -40.555 -22.005  -2.516  0.00  0.00    +0.000 OA
ATOM     10  H   UNL     1     -40.319 -22.151  -1.580  0.00  0.00    +0.000 HD
ENDBRANCH   6   9
TORSDOF 2
ENDMDL
MODEL 8
REMARK VINA RESULT:    -2.878     13.911     15.214
REMARK INTER + INTRA:          -3.183
REMARK INTER:                  -3.131
REMARK INTRA:                  -0.052
REMARK UNBOUND:                -0.052
REMARK  Name = 
REMARK  3 active torsions:
REMARK  status: ('A' for Active; 'I' for Inactive)
REMARK    1  A    between atoms: C_1  and  O_2
REMARK    2  A    between atoms: O_2  and  C_3
REMARK    3  A    between atoms: C_8  and  O_9
REMARK                            x       y       z     vdW  Elec       q    Type
REMARK                         _______ _______ _______ _____ _____    ______ ____
ROOT
ATOM      1  C   UNL     1     -30.540 -29.013  -0.344  0.00  0.00    +0.000 A 
ATOM      2  C   UNL     1     -31.201 -29.870  -1.223  0.00  0.00    +0.000 A 
ATOM      3  C   UNL     1     -31.082 -31.257  -1.070  0.00  0.00    +0.000 A 
ATOM      4  C   UNL     1     -30.304 -31.792  -0.042  0.00  0.00    +0.000 A 
ATOM      5  C   UNL     1     -29.640 -30.942   0.840  0.00  0.00    +0.000 A 
ATOM      6  C   UNL     1     -29.764 -29.568   0.681  0.00  0.00    +0.000 A 
ENDROOT
BRANCH   1   8
ATOM      7  C   UNL     1     -29.901 -27.019  -1.469  0.00  0.00    +0.000 C 
ATOM      8  O   UNL     1     -30.565 -27.642  -0.375  0.00  0.00    +0.000 OA
ENDBRANCH   1   8
BRANCH   6   9
ATOM      9  O   UNL     1     -29.102 -28.753   1.560  0.00  0.00    +0.000 OA
ATOM     10  H   UNL     1     -29.013 -27.901   1.092  0.00  0.00    +0.000 HD
ENDBRANCH   6   9
TORSDOF 2
ENDMDL
MODEL 9
REMARK VINA RESULT:    -2.871     11.102     12.442
REMARK INTER + INTRA:          -3.175
REMARK INTER:                  -3.133
REMARK INTRA:                  -0.041
REMARK UNBOUND:                -0.052
REMARK  Name = 
REMARK  3 active torsions:
REMARK  status: ('A' for Active; 'I' for Inactive)
REMARK    1  A    between atoms: C_1  and  O_2
REMARK    2  A    between atoms: O_2  and  C_3
REMARK    3  A    between atoms: C_8  and  O_9
REMARK                            x       y       z     vdW  Elec       q    Type
REMARK                         _______ _______ _______ _____ _____    ______ ____
ROOT
ATOM      1  C   UNL     1     -31.129 -25.750  -4.149  0.00  0.00    +0.000 A 
ATOM      2  C   UNL     1     -30.941 -27.096  -4.458  0.00  0.00    +0.000 A 
ATOM      3  C   UNL     1     -31.899 -27.780  -5.217  0.00  0.00    +0.000 A 
ATOM      4  C   UNL     1     -33.045 -27.123  -5.668  0.00  0.00    +0.000 A 
ATOM      5  C   UNL     1     -33.241 -25.778  -5.364  0.00  0.00    +0.000 A 
ATOM      6  C   UNL     1     -32.286 -25.108  -4.610  0.00  0.00    +0.000 A 
ENDROOT
BRANCH   1   8
ATOM      7  C   UNL     1     -29.527 -25.608  -2.400  0.00  0.00    +0.000 C 
ATOM      8  O   UNL     1     -30.280 -24.959  -3.418  0.00  0.00    +0.000 OA
ENDBRANCH   1   8
BRANCH   6   9
ATOM      9  O   UNL     1     -32.499 -23.786  -4.323  0.00  0.00    +0.000 OA
ATOM     10  H   UNL     1     -33.270 -23.783  -3.723  0.00  0.00    +0.000 HD
ENDBRANCH   6   9
TORSDOF 2
ENDMDL
