MODEL 1
REMARK VINA RESULT:    -4.103      0.000      0.000
REMARK INTER + INTRA:          -5.933
REMARK INTER:                  -5.542
REMARK INTRA:                  -0.391
REMARK UNBOUND:                -0.391
REMARK  Name = 
REMARK  10 active torsions:
REMARK  status: ('A' for Active; 'I' for Inactive)
REMARK    1  A    between atoms: C_1  and  C_2
REMARK    2  A    between atoms: C_5  and  N_8
REMARK    3  A    between atoms: N_8  and  C_9
REMARK    4  A    between atoms: N_8  and  C_13
REMARK    5  A    between atoms: C_9  and  C_10
REMARK    6  A    between atoms: C_10  and  C_11
REMARK    7  A    between atoms: C_10  and  O_12
REMARK    8  A    between atoms: C_13  and  C_14
REMARK    9  A    between atoms: C_14  and  C_15
REMARK   10  A    between atoms: C_14  and  O_16
REMARK                            x       y       z     vdW  Elec       q    Type
REMARK                         _______ _______ _______ _____ _____    ______ ____
ROOT
ATOM      1  N   UNL     1     -30.656 -26.580  -2.988  0.00  0.00    +0.000 N 
ENDROOT
BRANCH   1   6
ATOM      2  C   UNL     1     -31.187 -31.526  -0.059  0.00  0.00    +0.000 C 
ATOM      3  C   UNL     1     -31.073 -30.237  -0.813  0.00  0.00    +0.000 A 
ATOM      4  C   UNL     1     -31.377 -30.173  -2.169  0.00  0.00    +0.000 A 
ATOM      5  C   UNL     1     -31.239 -28.968  -2.877  0.00  0.00    +0.000 A 
ATOM      6  C   UNL     1     -30.772 -27.783  -2.280  0.00  0.00    +0.000 A 
ATOM      7  C   UNL     1     -30.476 -27.884  -0.908  0.00  0.00    +0.000 A 
ATOM      8  C   UNL     1     -30.612 -29.082  -0.188  0.00  0.00    +0.000 A 
ENDBRANCH   1   6
BRANCH   1   9
ATOM      9  C   UNL     1     -31.588 -26.279  -4.102  0.00  0.00    +0.000 C 
BRANCH   9  10
ATOM     10  C   UNL     1     -31.363 -24.873  -4.709  0.00  0.00    +0.000 C 
ATOM     11  C   UNL     1     -31.697 -24.861  -6.196  0.00  0.00    +0.000 C 
BRANCH  10  12
ATOM     12  O   UNL     1     -32.188 -23.895  -4.061  0.00  0.00    +0.000 OA
ATOM     13  H   UNL     1     -32.417 -24.231  -3.178  0.00  0.00    +0.000 HD
ENDBRANCH  10  12
ENDBRANCH   9  10
ENDBRANCH   1   9
BRANCH   1  14
ATOM     14  C   UNL     1     -29.372 -25.834  -3.030  0.00  0.00    +0.000 C 
BRANCH  14  15
ATOM     15  C   UNL     1     -29.165 -24.956  -1.772  0.00  0.00    +0.000 C 
ATOM     16  C   UNL     1     -27.702 -24.625  -1.506  0.00  0.00    +0.000 C 
BRANCH  15  17
ATOM     17  O   UNL     1     -29.886 -23.728  -1.862  0.00  0.00    +0.000 OA
ATOM     18  H   UNL     1     -29.445 -23.227  -2.577  0.00  0.00    +0.000 HD
ENDBRANCH  15  17
ENDBRANCH  14  15
ENDBRANCH   1  14
TORSDOF 7
ENDMDL
MODEL 2
REMARK VINA RESULT:    -4.032      1.707      5.035
REMARK INTER + INTRA:          -5.838
REMARK INTER:                  -5.324
REMARK INTRA:                  -0.514
REMARK UNBOUND:                -0.391
REMARK  Name = 
REMARK  10 active torsions:
REMARK  status: ('A' for Active; 'I' for Inactive)
REMARK    1  A    between atoms: C_1  and  C_2
REMARK    2  A    between atoms: C_5  and  N_8
REMARK    3  A    between atoms: N_8  and  C_9
REMARK    4  A    between atoms: N_8  and  C_13
REMARK    5  A    between atoms: C_9  and  C_10
REMARK    6  A    between atoms: C_10  and  C_11
REMARK    7  A    between atoms: C_10  and  O_12
REMARK    8  A    between atoms: C_13  and  C_14
REMARK    9  A    between atoms: C_14  and  C_15
REMARK   10  A    between atoms: C_14  and  O_16
REMARK                            x       y       z     vdW  Elec       q    Type
REMARK                         _______ _______ _______ _____ _____    ______ ____
ROOT
ATOM      1  N   UNL     1     -30.201 -26.504  -3.366  0.00  0.00    +0.000 N 
ENDROOT
BRANCH   1   6
ATOM      2  C   UNL     1     -34.781 -25.131  -6.602  0.00  0.00    +0.000 C 
ATOM      3  C   UNL     1     -33.607 -25.488  -5.742  0.00  0.00    +0.000 A 
ATOM      4  C   UNL     1     -32.809 -24.499  -5.176  0.00  0.00    +0.000 A 
ATOM      5  C   UNL     1     -31.693 -24.840  -4.395  0.00  0.00    +0.000 A 
ATOM      6  C   UNL     1     -31.304 -26.171  -4.162  0.00  0.00    +0.000 A 
ATOM      7  C   UNL     1     -32.134 -27.145  -4.748  0.00  0.00    +0.000 A 
ATOM      8  C   UNL     1     -33.255 -26.818  -5.529  0.00  0.00    +0.000 A 
ENDBRANCH   1   6
BRANCH   1   9
ATOM      9  C   UNL     1     -29.108 -25.522  -3.163  0.00  0.00    +0.000 C 
BRANCH   9  10
ATOM     10  C   UNL     1     -29.058 -24.971  -1.717  0.00  0.00    +0.000 C 
ATOM     11  C   UNL     1     -27.620 -24.720  -1.278  0.00  0.00    +0.000 C 
BRANCH  10  12
ATOM     12  O   UNL     1     -29.776 -23.733  -1.613  0.00  0.00    +0.000 OA
ATOM     13  H   UNL     1     -29.468 -23.272  -0.816  0.00  0.00    +0.000 HD
ENDBRANCH  10  12
ENDBRANCH   9  10
ENDBRANCH   1   9
BRANCH   1  14
ATOM     14  C   UNL     1     -29.818 -27.921  -3.136  0.00  0.00    +0.000 C 
BRANCH  14  15
ATOM     15  C   UNL     1     -30.269 -28.429  -1.745  0.00  0.00    +0.000 C 
ATOM     16  C   UNL     1     -29.147 -28.426  -0.713  0.00  0.00    +0.000 C 
BRANCH  15  17
ATOM     17  O   UNL     1     -31.348 -27.654  -1.226  0.00  0.00    +0.000 OA
ATOM     18  H   UNL     1     -31.616 -28.113  -0.404  0.00  0.00    +0.000 HD
ENDBRANCH  15  17
ENDBRANCH  14  15
ENDBRANCH   1  14
TORSDOF 7
ENDMDL
MODEL 3
REMARK VINA RESULT:    -3.995      1.154      3.222
REMARK INTER + INTRA:          -5.788
REMARK INTER:                  -5.365
REMARK INTRA:                  -0.423
REMARK UNBOUND:                -0.391
REMARK  Name = 
REMARK  10 active torsions:
REMARK  status: ('A' for Active; 'I' for Inactive)
REMARK    1  A    between atoms: C_1  and  C_2
REMARK    2  A    between atoms: C_5  and  N_8
REMARK    3  A    between atoms: N_8  and  C_9
REMARK    4  A    between atoms: N_8  and  C_13
REMARK    5  A    between atoms: C_9  and  C_10
REMARK    6  A    between atoms: C_10  and  C_11
REMARK    7  A    between atoms: C_10  and  O_12
REMARK    8  A    between atoms: C_13  and  C_14
REMARK    9  A    between atoms: C_14  and  C_15
REMARK   10  A    between atoms: C_14  and  O_16
REMARK                            x       y       z     vdW  Elec       q    Type
REMARK                         _______ _______ _______ _____ _____    ______ ____
ROOT
ATOM      1  N   UNL     1     -30.067 -26.507  -3.035  0.00  0.00    +0.000 N 
ENDROOT
BRANCH   1   6
ATOM      2  C   UNL     1     -29.552 -30.767   0.827  0.00  0.00    +0.000 C 
ATOM      3  C   UNL     1     -29.702 -29.676  -0.188  0.00  0.00    +0.000 A 
ATOM      4  C   UNL     1     -28.843 -29.593  -1.279  0.00  0.00    +0.000 A 
ATOM      5  C   UNL     1     -28.969 -28.550  -2.211  0.00  0.00    +0.000 A 
ATOM      6  C   UNL     1     -29.934 -27.533  -2.091  0.00  0.00    +0.000 A 
ATOM      7  C   UNL     1     -30.786 -27.650  -0.977  0.00  0.00    +0.000 A 
ATOM      8  C   UNL     1     -30.672 -28.689  -0.038  0.00  0.00    +0.000 A 
ENDBRANCH   1   6
BRANCH   1   9
ATOM      9  C   UNL     1     -29.130 -25.358  -3.020  0.00  0.00    +0.000 C 
BRANCH   9  10
ATOM     10  C   UNL     1     -28.838 -24.840  -1.590  0.00  0.00    +0.000 C 
ATOM     11  C   UNL     1     -27.343 -24.634  -1.379  0.00  0.00    +0.000 C 
BRANCH  10  12
ATOM     12  O   UNL     1     -29.497 -23.588  -1.352  0.00  0.00    +0.000 OA
ATOM     13  H   UNL     1     -30.278 -23.758  -0.799  0.00  0.00    +0.000 HD
ENDBRANCH  10  12
ENDBRANCH   9  10
ENDBRANCH   1   9
BRANCH   1  14
ATOM     14  C   UNL     1     -31.363 -26.247  -3.710  0.00  0.00    +0.000 C 
BRANCH  14  15
ATOM     15  C   UNL     1     -31.331 -24.953  -4.559  0.00  0.00    +0.000 C 
ATOM     16  C   UNL     1     -31.229 -25.220  -6.056  0.00  0.00    +0.000 C 
BRANCH  15  17
ATOM     17  O   UNL     1     -32.484 -24.144  -4.332  0.00  0.00    +0.000 OA
ATOM     18  H   UNL     1     -32.925 -24.082  -5.203  0.00  0.00    +0.000 HD
ENDBRANCH  15  17
ENDBRANCH  14  15
ENDBRANCH   1  14
TORSDOF 7
ENDMDL
MODEL 4
REMARK VINA RESULT:    -3.992      2.460      5.366
REMARK INTER + INTRA:          -5.784
REMARK INTER:                  -5.331
REMARK INTRA:                  -0.453
REMARK UNBOUND:                -0.391
REMARK  Name = 
REMARK  10 active torsions:
REMARK  status: ('A' for Active; 'I' for Inactive)
REMARK    1  A    between atoms: C_1  and  C_2
REMARK    2  A    between atoms: C_5  and  N_8
REMARK    3  A    between atoms: N_8  and  C_9
REMARK    4  A    between atoms: N_8  and  C_13
REMARK    5  A    between atoms: C_9  and  C_10
REMARK    6  A    between atoms: C_10  and  C_11
REMARK    7  A    between atoms: C_10  and  O_12
REMARK    8  A    between atoms: C_13  and  C_14
REMARK    9  A    between atoms: C_14  and  C_15
REMARK   10  A    between atoms: C_14  and  O_16
REMARK                            x       y       z     vdW  Elec       q    Type
REMARK                         _______ _______ _______ _____ _____    ______ ____
ROOT
ATOM      1  N   UNL     1     -29.277 -26.493  -3.184  0.00  0.00    +0.000 N 
ENDROOT
BRANCH   1   6
ATOM      2  C   UNL     1     -29.474 -23.886  -8.331  0.00  0.00    +0.000 C 
ATOM      3  C   UNL     1     -29.429 -24.584  -7.006  0.00  0.00    +0.000 A 
ATOM      4  C   UNL     1     -30.554 -24.640  -6.190  0.00  0.00    +0.000 A 
ATOM      5  C   UNL     1     -30.497 -25.270  -4.936  0.00  0.00    +0.000 A 
ATOM      6  C   UNL     1     -29.321 -25.849  -4.427  0.00  0.00    +0.000 A 
ATOM      7  C   UNL     1     -28.205 -25.776  -5.280  0.00  0.00    +0.000 A 
ATOM      8  C   UNL     1     -28.248 -25.151  -6.537  0.00  0.00    +0.000 A 
ENDBRANCH   1   6
BRANCH   1   9
ATOM      9  C   UNL     1     -29.608 -27.934  -3.081  0.00  0.00    +0.000 C 
BRANCH   9  10
ATOM     10  C   UNL     1     -31.132 -28.198  -3.015  0.00  0.00    +0.000 C 
ATOM     11  C   UNL     1     -31.542 -29.278  -4.009  0.00  0.00    +0.000 C 
BRANCH  10  12
ATOM     12  O   UNL     1     -31.524 -28.628  -1.704  0.00  0.00    +0.000 OA
ATOM     13  H   UNL     1     -31.545 -29.599  -1.699  0.00  0.00    +0.000 HD
ENDBRANCH  10  12
ENDBRANCH   9  10
ENDBRANCH   1   9
BRANCH   1  14
ATOM     14  C   UNL     1     -29.415 -25.728  -1.917  0.00  0.00    +0.000 C 
BRANCH  14  15
ATOM     15  C   UNL     1     -28.241 -24.745  -1.698  0.00  0.00    +0.000 C 
ATOM     16  C   UNL     1     -28.679 -23.410  -1.106  0.00  0.00    +0.000 C 
BRANCH  15  17
ATOM     17  O   UNL     1     -27.241 -25.299  -0.844  0.00  0.00    +0.000 OA
ATOM     18  H   UNL     1     -26.696 -24.536  -0.564  0.00  0.00    +0.000 HD
ENDBRANCH  15  17
ENDBRANCH  14  15
ENDBRANCH   1  14
TORSDOF 7
ENDMDL
MODEL 5
REMARK VINA RESULT:    -3.980      2.417      4.936
REMARK INTER + INTRA:          -5.767
REMARK INTER:                  -5.051
REMARK INTRA:                  -0.717
REMARK UNBOUND:                -0.391
REMARK  Name = 
REMARK  10 active torsions:
REMARK  status: ('A' for Active; 'I' for Inactive)
REMARK    1  A    between atoms: C_1  and  C_2
REMARK    2  A    between atoms: C_5  and  N_8
REMARK    3  A    between atoms: N_8  and  C_9
REMARK    4  A    between atoms: N_8  and  C_13
REMARK    5  A    between atoms: C_9  and  C_10
REMARK    6  A    between atoms: C_10  and  C_11
REMARK    7  A    between atoms: C_10  and  O_12
REMARK    8  A    between atoms: C_13  and  C_14
REMARK    9  A    between atoms: C_14  and  C_15
REMARK   10  A    between atoms: C_14  and  O_16
REMARK                            x       y       z     vdW  Elec       q    Type
REMARK                         _______ _______ _______ _____ _____    ______ ____
ROOT
ATOM      1  N   UNL     1     -29.578 -26.670  -2.548  0.00  0.00    +0.000 N 
ENDROOT
BRANCH   1   6
ATOM      2  C   UNL     1     -33.990 -25.200  -5.969  0.00  0.00    +0.000 C 
ATOM      3  C   UNL     1     -32.831 -25.586  -5.102  0.00  0.00    +0.000 A 
ATOM      4  C   UNL     1     -32.671 -26.896  -4.665  0.00  0.00    +0.000 A 
ATOM      5  C   UNL     1     -31.600 -27.246  -3.827  0.00  0.00    +0.000 A 
ATOM      6  C   UNL     1     -30.655 -26.311  -3.367  0.00  0.00    +0.000 A 
ATOM      7  C   UNL     1     -30.847 -24.996  -3.831  0.00  0.00    +0.000 A 
ATOM      8  C   UNL     1     -31.913 -24.633  -4.671  0.00  0.00    +0.000 A 
ENDBRANCH   1   6
BRANCH   1   9
ATOM      9  C   UNL     1     -29.466 -28.056  -2.033  0.00  0.00    +0.000 C 
BRANCH   9  10
ATOM     10  C   UNL     1     -29.709 -28.152  -0.507  0.00  0.00    +0.000 C 
ATOM     11  C   UNL     1     -30.746 -29.221  -0.186  0.00  0.00    +0.000 C 
BRANCH  10  12
ATOM     12  O   UNL     1     -28.499 -28.484   0.187  0.00  0.00    +0.000 OA
ATOM     13  H   UNL     1     -28.645 -28.334   1.136  0.00  0.00    +0.000 HD
ENDBRANCH  10  12
ENDBRANCH   9  10
ENDBRANCH   1   9
BRANCH   1  14
ATOM     14  C   UNL     1     -28.835 -25.651  -1.763  0.00  0.00    +0.000 C 
BRANCH  14  15
ATOM     15  C   UNL     1     -27.312 -25.700  -2.036  0.00  0.00    +0.000 C 
ATOM     16  C   UNL     1     -26.683 -24.318  -2.171  0.00  0.00    +0.000 C 
BRANCH  15  17
ATOM     17  O   UNL     1     -26.616 -26.404  -1.009  0.00  0.00    +0.000 OA
ATOM     18  H   UNL     1     -26.012 -27.010  -1.483  0.00  0.00    +0.000 HD
ENDBRANCH  15  17
ENDBRANCH  14  15
ENDBRANCH   1  14
TORSDOF 7
ENDMDL
MODEL 6
REMARK VINA RESULT:    -3.978      1.997      4.924
REMARK INTER + INTRA:          -5.765
REMARK INTER:                  -5.288
REMARK INTRA:                  -0.477
REMARK UNBOUND:                -0.391
REMARK  Name = 
REMARK  10 active torsions:
REMARK  status: ('A' for Active; 'I' for Inactive)
REMARK    1  A    between atoms: C_1  and  C_2
REMARK    2  A    between atoms: C_5  and  N_8
REMARK    3  A    between atoms: N_8  and  C_9
REMARK    4  A    between atoms: N_8  and  C_13
REMARK    5  A    between atoms: C_9  and  C_10
REMARK    6  A    between atoms: C_10  and  C_11
REMARK    7  A    between atoms: C_10  and  O_12
REMARK    8  A    between atoms: C_13  and  C_14
REMARK    9  A    between atoms: C_14  and  C_15
REMARK   10  A    between atoms: C_14  and  O_16
REMARK                            x       y       z     vdW  Elec       q    Type
REMARK                         _______ _______ _______ _____ _____    ______ ____
ROOT
ATOM      1  N   UNL     1     -30.445 -26.567  -3.132  0.00  0.00    +0.000 N 
ENDROOT
BRANCH   1   6
ATOM      2  C   UNL     1     -34.665 -24.967  -6.732  0.00  0.00    +0.000 C 
ATOM      3  C   UNL     1     -33.554 -25.382  -5.817  0.00  0.00    +0.000 A 
ATOM      4  C   UNL     1     -33.310 -26.726  -5.554  0.00  0.00    +0.000 A 
ATOM      5  C   UNL     1     -32.287 -27.108  -4.672  0.00  0.00    +0.000 A 
ATOM      6  C   UNL     1     -31.477 -26.178  -3.996  0.00  0.00    +0.000 A 
ATOM      7  C   UNL     1     -31.750 -24.829  -4.287  0.00  0.00    +0.000 A 
ATOM      8  C   UNL     1     -32.770 -24.432  -5.169  0.00  0.00    +0.000 A 
ENDBRANCH   1   6
BRANCH   1   9
ATOM      9  C   UNL     1     -30.752 -27.357  -1.916  0.00  0.00    +0.000 C 
BRANCH   9  10
ATOM     10  C   UNL     1     -30.538 -28.877  -2.118  0.00  0.00    +0.000 C 
ATOM     11  C   UNL     1     -29.535 -29.425  -1.110  0.00  0.00    +0.000 C 
BRANCH  10  12
ATOM     12  O   UNL     1     -31.768 -29.596  -1.956  0.00  0.00    +0.000 OA
ATOM     13  H   UNL     1     -31.566 -30.546  -1.976  0.00  0.00    +0.000 HD
ENDBRANCH  10  12
ENDBRANCH   9  10
ENDBRANCH   1   9
BRANCH   1  14
ATOM     14  C   UNL     1     -29.160 -25.823  -3.086  0.00  0.00    +0.000 C 
BRANCH  14  15
ATOM     15  C   UNL     1     -28.906 -25.180  -1.701  0.00  0.00    +0.000 C 
ATOM     16  C   UNL     1     -27.428 -24.954  -1.407  0.00  0.00    +0.000 C 
BRANCH  15  17
ATOM     17  O   UNL     1     -29.579 -23.929  -1.569  0.00  0.00    +0.000 OA
ATOM     18  H   UNL     1     -30.335 -23.983  -2.188  0.00  0.00    +0.000 HD
ENDBRANCH  15  17
ENDBRANCH  14  15
ENDBRANCH   1  14
TORSDOF 7
ENDMDL
MODEL 7
REMARK VINA RESULT:    -3.950     14.185     15.655
REMARK INTER + INTRA:          -5.727
REMARK INTER:                  -5.096
REMARK INTRA:                  -0.631
REMARK UNBOUND:                -0.391
REMARK  Name = 
REMARK  10 active torsions:
REMARK  status: ('A' for Active; 'I' for Inactive)
REMARK    1  A    between atoms: C_1  and  C_2
REMARK    2  A    between atoms: C_5  and  N_8
REMARK    3  A    between atoms: N_8  and  C_9
REMARK    4  A    between atoms: N_8  and  C_13
REMARK    5  A    between atoms: C_9  and  C_10
REMARK    6  A    between atoms: C_10  and  C_11
REMARK    7  A    between atoms: C_10  and  O_12
REMARK    8  A    between atoms: C_13  and  C_14
REMARK    9  A    between atoms: C_14  and  C_15
REMARK   10  A    between atoms: C_14  and  O_16
REMARK                            x       y       z     vdW  Elec       q    Type
REMARK                         _______ _______ _______ _____ _____    ______ ____
ROOT
ATOM      1  N   UNL     1     -45.973 -26.152  -2.085  0.00  0.00    +0.000 N 
ENDROOT
BRANCH   1   6
ATOM      2  C   UNL     1     -42.575 -21.596  -3.098  0.00  0.00    +0.000 C 
ATOM      3  C   UNL     1     -43.460 -22.770  -2.812  0.00  0.00    +0.000 A 
ATOM      4  C   UNL     1     -42.925 -23.978  -2.377  0.00  0.00    +0.000 A 
ATOM      5  C   UNL     1     -43.756 -25.085  -2.139  0.00  0.00    +0.000 A 
ATOM      6  C   UNL     1     -45.147 -25.050  -2.343  0.00  0.00    +0.000 A 
ATOM      7  C   UNL     1     -45.654 -23.813  -2.781  0.00  0.00    +0.000 A 
ATOM      8  C   UNL     1     -44.834 -22.698  -3.021  0.00  0.00    +0.000 A 
ENDBRANCH   1   6
BRANCH   1   9
ATOM      9  C   UNL     1     -46.061 -27.261  -3.066  0.00  0.00    +0.000 C 
BRANCH   9  10
ATOM     10  C   UNL     1     -46.083 -28.656  -2.394  0.00  0.00    +0.000 C 
ATOM     11  C   UNL     1     -46.055 -29.764  -3.440  0.00  0.00    +0.000 C 
BRANCH  10  12
ATOM     12  O   UNL     1     -44.949 -28.830  -1.533  0.00  0.00    +0.000 OA
ATOM     13  H   UNL     1     -45.245 -28.697  -0.616  0.00  0.00    +0.000 HD
ENDBRANCH  10  12
ENDBRANCH   9  10
ENDBRANCH   1   9
BRANCH   1  14
ATOM     14  C   UNL     1     -47.126 -26.047  -1.156  0.00  0.00    +0.000 C 
BRANCH  14  15
ATOM     15  C   UNL     1     -46.735 -26.390   0.302  0.00  0.00    +0.000 C 
ATOM     16  C   UNL     1     -47.558 -27.528   0.893  0.00  0.00    +0.000 C 
BRANCH  15  17
ATOM     17  O   UNL     1     -45.356 -26.739   0.410  0.00  0.00    +0.000 OA
ATOM     18  H   UNL     1     -44.948 -26.416  -0.419  0.00  0.00    +0.000 HD
ENDBRANCH  15  17
ENDBRANCH  14  15
ENDBRANCH   1  14
TORSDOF 7
ENDMDL
MODEL 8
REMARK VINA RESULT:    -3.939      3.212      4.504
REMARK INTER + INTRA:          -5.712
REMARK INTER:                  -5.264
REMARK INTRA:                  -0.447
REMARK UNBOUND:                -0.391
REMARK  Name = 
REMARK  10 active torsions:
REMARK  status: ('A' for Active; 'I' for Inactive)
REMARK    1  A    between atoms: C_1  and  C_2
REMARK    2  A    between atoms: C_5  and  N_8
REMARK    3  A    between atoms: N_8  and  C_9
REMARK    4  A    between atoms: N_8  and  C_13
REMARK    5  A    between atoms: C_9  and  C_10
REMARK    6  A    between atoms: C_10  and  C_11
REMARK    7  A    between atoms: C_10  and  O_12
REMARK    8  A    between atoms: C_13  and  C_14
REMARK    9  A    between atoms: C_14  and  C_15
REMARK   10  A    between atoms: C_14  and  O_16
REMARK                            x       y       z     vdW  Elec       q    Type
REMARK                         _______ _______ _______ _____ _____    ______ ____
ROOT
ATOM      1  N   UNL     1     -29.614 -25.735  -3.589  0.00  0.00    +0.000 N 
ENDROOT
BRANCH   1   6
ATOM      2  C   UNL     1     -34.859 -25.879  -5.996  0.00  0.00    +0.000 C 
ATOM      3  C   UNL     1     -33.488 -25.841  -5.394  0.00  0.00    +0.000 A 
ATOM      4  C   UNL     1     -32.800 -27.015  -5.107  0.00  0.00    +0.000 A 
ATOM      5  C   UNL     1     -31.527 -26.974  -4.515  0.00  0.00    +0.000 A 
ATOM      6  C   UNL     1     -30.892 -25.770  -4.161  0.00  0.00    +0.000 A 
ATOM      7  C   UNL     1     -31.615 -24.603  -4.467  0.00  0.00    +0.000 A 
ATOM      8  C   UNL     1     -32.887 -24.630  -5.061  0.00  0.00    +0.000 A 
ENDBRANCH   1   6
BRANCH   1   9
ATOM      9  C   UNL     1     -28.453 -26.287  -4.328  0.00  0.00    +0.000 C 
BRANCH   9  10
ATOM     10  C   UNL     1     -28.309 -25.691  -5.750  0.00  0.00    +0.000 C 
ATOM     11  C   UNL     1     -26.917 -25.107  -5.958  0.00  0.00    +0.000 C 
BRANCH  10  12
ATOM     12  O   UNL     1     -28.525 -26.694  -6.752  0.00  0.00    +0.000 OA
ATOM     13  H   UNL     1     -28.100 -27.515  -6.453  0.00  0.00    +0.000 HD
ENDBRANCH  10  12
ENDBRANCH   9  10
ENDBRANCH   1   9
BRANCH   1  14
ATOM     14  C   UNL     1     -29.433 -25.649  -2.117  0.00  0.00    +0.000 C 
BRANCH  14  15
ATOM     15  C   UNL     1     -28.227 -24.760  -1.728  0.00  0.00    +0.000 C 
ATOM     16  C   UNL     1     -28.636 -23.456  -1.054  0.00  0.00    +0.000 C 
BRANCH  15  17
ATOM     17  O   UNL     1     -27.327 -25.444  -0.856  0.00  0.00    +0.000 OA
ATOM     18  H   UNL     1     -26.917 -24.741  -0.314  0.00  0.00    +0.000 HD
ENDBRANCH  15  17
ENDBRANCH  14  15
ENDBRANCH   1  14
TORSDOF 7
ENDMDL
MODEL 9
REMARK VINA RESULT:    -3.871     13.349     14.918
REMARK INTER + INTRA:          -5.620
REMARK INTER:                  -4.798
REMARK INTRA:                  -0.821
REMARK UNBOUND:                -0.391
REMARK  Name = 
REMARK  10 active torsions:
REMARK  status: ('A' for Active; 'I' for Inactive)
REMARK    1  A    between atoms: C_1  and  C_2
REMARK    2  A    between atoms: C_5  and  N_8
REMARK    3  A    between atoms: N_8  and  C_9
REMARK    4  A    between atoms: N_8  and  C_13
REMARK    5  A    between atoms: C_9  and  C_10
REMARK    6  A    between atoms: C_10  and  C_11
REMARK    7  A    between atoms: C_10  and  O_12
REMARK    8  A    between atoms: C_13  and  C_14
REMARK    9  A    between atoms: C_14  and  C_15
REMARK   10  A    between atoms: C_14  and  O_16
REMARK                            x       y       z     vdW  Elec       q    Type
REMARK                         _______ _______ _______ _____ _____    ______ ____
ROOT
ATOM      1  N   UNL     1     -45.318 -24.640  -3.132  0.00  0.00    +0.000 N 
ENDROOT
BRANCH   1   6
ATOM      2  C   UNL     1     -42.050 -20.187  -1.455  0.00  0.00    +0.000 C 
ATOM      3  C   UNL     1     -42.890 -21.339  -1.914  0.00  0.00    +0.000 A 
ATOM      4  C   UNL     1     -44.205 -21.147  -2.321  0.00  0.00    +0.000 A 
ATOM      5  C   UNL     1     -44.998 -22.235  -2.721  0.00  0.00    +0.000 A 
ATOM      6  C   UNL     1     -44.529 -23.562  -2.713  0.00  0.00    +0.000 A 
ATOM      7  C   UNL     1     -43.194 -23.718  -2.298  0.00  0.00    +0.000 A 
ATOM      8  C   UNL     1     -42.390 -22.638  -1.897  0.00  0.00    +0.000 A 
ENDBRANCH   1   6
BRANCH   1   9
ATOM      9  C   UNL     1     -45.596 -24.842  -4.575  0.00  0.00    +0.000 C 
BRANCH   9  10
ATOM     10  C   UNL     1     -44.541 -25.736  -5.270  0.00  0.00    +0.000 C 
ATOM     11  C   UNL     1     -43.436 -24.892  -5.893  0.00  0.00    +0.000 C 
BRANCH  10  12
ATOM     12  O   UNL     1     -43.936 -26.640  -4.335  0.00  0.00    +0.000 OA
ATOM     13  H   UNL     1     -44.539 -27.391  -4.208  0.00  0.00    +0.000 HD
ENDBRANCH  10  12
ENDBRANCH   9  10
ENDBRANCH   1   9
BRANCH   1  14
ATOM     14  C   UNL     1     -46.292 -25.283  -2.213  0.00  0.00    +0.000 C 
BRANCH  14  15
ATOM     15  C   UNL     1     -45.598 -26.184  -1.164  0.00  0.00    +0.000 C 
ATOM     16  C   UNL     1     -46.495 -26.528   0.019  0.00  0.00    +0.000 C 
BRANCH  15  17
ATOM     17  O   UNL     1     -45.138 -27.406  -1.740  0.00  0.00    +0.000 OA
ATOM     18  H   UNL     1     -45.934 -27.972  -1.800  0.00  0.00    +0.000 HD
ENDBRANCH  15  17
ENDBRANCH  14  15
ENDBRANCH   1  14
TORSDOF 7
ENDMDL
