MODEL 1
REMARK VINA RESULT:    -4.056      0.000      0.000
REMARK INTER + INTRA:          -5.931
REMARK INTER:                  -5.479
REMARK INTRA:                  -0.452
REMARK UNBOUND:                -0.452
REMARK  Name = 
REMARK  10 active torsions:
REMARK  status: ('A' for Active; 'I' for Inactive)
REMARK    1  A    between atoms: C_1  and  C_2
REMARK    2  A    between atoms: C_5  and  N_8
REMARK    3  A    between atoms: N_8  and  C_9
REMARK    4  A    between atoms: N_8  and  C_13
REMARK    5  A    between atoms: C_9  and  C_10
REMARK    6  A    between atoms: C_10  and  C_11
REMARK    7  A    between atoms: C_10  and  O_12
REMARK    8  A    between atoms: C_13  and  C_14
REMARK    9  A    between atoms: C_14  and  C_15
REMARK   10  A    between atoms: C_14  and  O_16
REMARK                            x       y       z     vdW  Elec       q    Type
REMARK                         _______ _______ _______ _____ _____    ______ ____
ROOT
ATOM      1  N   UNL     1     -30.636 -26.603  -2.941  0.00  0.00    +0.000 N 
ENDROOT
BRANCH   1   6
ATOM      2  C   UNL     1     -30.969 -31.565  -0.009  0.00  0.00    +0.000 C 
ATOM      3  C   UNL     1     -30.907 -30.275  -0.767  0.00  0.00    +0.000 A 
ATOM      4  C   UNL     1     -31.000 -30.257  -2.155  0.00  0.00    +0.000 A 
ATOM      5  C   UNL     1     -30.911 -29.047  -2.863  0.00  0.00    +0.000 A 
ATOM      6  C   UNL     1     -30.704 -27.808  -2.230  0.00  0.00    +0.000 A 
ATOM      7  C   UNL     1     -30.617 -27.864  -0.827  0.00  0.00    +0.000 A 
ATOM      8  C   UNL     1     -30.706 -29.067  -0.106  0.00  0.00    +0.000 A 
ENDBRANCH   1   6
BRANCH   1   9
ATOM      9  C   UNL     1     -31.625 -26.313  -4.007  0.00  0.00    +0.000 C 
BRANCH   9  10
ATOM     10  C   UNL     1     -31.386 -24.943  -4.688  0.00  0.00    +0.000 C 
ATOM     11  C   UNL     1     -31.782 -24.990  -6.159  0.00  0.00    +0.000 C 
BRANCH  10  12
ATOM     12  O   UNL     1     -32.156 -23.912  -4.054  0.00  0.00    +0.000 OA
ATOM     13  H   UNL     1     -32.938 -23.738  -4.604  0.00  0.00    +0.000 HD
ENDBRANCH  10  12
ENDBRANCH   9  10
ENDBRANCH   1   9
BRANCH   1  14
ATOM     14  C   UNL     1     -29.365 -25.842  -3.043  0.00  0.00    +0.000 C 
BRANCH  14  15
ATOM     15  C   UNL     1     -29.105 -24.968  -1.793  0.00  0.00    +0.000 C 
ATOM     16  C   UNL     1     -27.635 -24.608  -1.608  0.00  0.00    +0.000 C 
BRANCH  15  17
ATOM     17  O   UNL     1     -29.855 -23.755  -1.832  0.00  0.00    +0.000 OA
ATOM     18  H   UNL     1     -29.520 -23.276  -2.617  0.00  0.00    +0.000 HD
ENDBRANCH  15  17
ENDBRANCH  14  15
ENDBRANCH   1  14
TORSDOF 7
ENDMDL
MODEL 2
REMARK VINA RESULT:    -4.045      2.867      4.587
REMARK INTER + INTRA:          -5.916
REMARK INTER:                  -5.340
REMARK INTRA:                  -0.576
REMARK UNBOUND:                -0.452
REMARK  Name = 
REMARK  10 active torsions:
REMARK  status: ('A' for Active; 'I' for Inactive)
REMARK    1  A    between atoms: C_1  and  C_2
REMARK    2  A    between atoms: C_5  and  N_8
REMARK    3  A    between atoms: N_8  and  C_9
REMARK    4  A    between atoms: N_8  and  C_13
REMARK    5  A    between atoms: C_9  and  C_10
REMARK    6  A    between atoms: C_10  and  C_11
REMARK    7  A    between atoms: C_10  and  O_12
REMARK    8  A    between atoms: C_13  and  C_14
REMARK    9  A    between atoms: C_14  and  C_15
REMARK   10  A    between atoms: C_14  and  O_16
REMARK                            x       y       z     vdW  Elec       q    Type
REMARK                         _______ _______ _______ _____ _____    ______ ____
ROOT
ATOM      1  N   UNL     1     -31.433 -25.234  -5.953  0.00  0.00    +0.000 N 
ENDROOT
BRANCH   1   6
ATOM      2  C   UNL     1     -28.586 -27.421  -1.431  0.00  0.00    +0.000 C 
ATOM      3  C   UNL     1     -29.347 -26.860  -2.594  0.00  0.00    +0.000 A 
ATOM      4  C   UNL     1     -29.599 -27.634  -3.722  0.00  0.00    +0.000 A 
ATOM      5  C   UNL     1     -30.286 -27.094  -4.822  0.00  0.00    +0.000 A 
ATOM      6  C   UNL     1     -30.731 -25.760  -4.861  0.00  0.00    +0.000 A 
ATOM      7  C   UNL     1     -30.461 -25.009  -3.703  0.00  0.00    +0.000 A 
ATOM      8  C   UNL     1     -29.777 -25.537  -2.595  0.00  0.00    +0.000 A 
ENDBRANCH   1   6
BRANCH   1   9
ATOM      9  C   UNL     1     -30.735 -24.994  -7.239  0.00  0.00    +0.000 C 
BRANCH   9  10
ATOM     10  C   UNL     1     -29.397 -24.234  -7.063  0.00  0.00    +0.000 C 
ATOM     11  C   UNL     1     -28.224 -25.077  -7.550  0.00  0.00    +0.000 C 
BRANCH  10  12
ATOM     12  O   UNL     1     -29.401 -23.006  -7.804  0.00  0.00    +0.000 OA
ATOM     13  H   UNL     1     -28.496 -22.652  -7.804  0.00  0.00    +0.000 HD
ENDBRANCH  10  12
ENDBRANCH   9  10
ENDBRANCH   1   9
BRANCH   1  14
ATOM     14  C   UNL     1     -32.676 -24.444  -5.759  0.00  0.00    +0.000 C 
BRANCH  14  15
ATOM     15  C   UNL     1     -33.929 -25.345  -5.644  0.00  0.00    +0.000 C 
ATOM     16  C   UNL     1     -33.954 -26.471  -6.670  0.00  0.00    +0.000 C 
BRANCH  15  17
ATOM     17  O   UNL     1     -34.043 -25.926  -4.347  0.00  0.00    +0.000 OA
ATOM     18  H   UNL     1     -34.905 -26.390  -4.352  0.00  0.00    +0.000 HD
ENDBRANCH  15  17
ENDBRANCH  14  15
ENDBRANCH   1  14
TORSDOF 7
ENDMDL
MODEL 3
REMARK VINA RESULT:    -4.024      1.122      3.233
REMARK INTER + INTRA:          -5.887
REMARK INTER:                  -5.210
REMARK INTRA:                  -0.678
REMARK UNBOUND:                -0.452
REMARK  Name = 
REMARK  10 active torsions:
REMARK  status: ('A' for Active; 'I' for Inactive)
REMARK    1  A    between atoms: C_1  and  C_2
REMARK    2  A    between atoms: C_5  and  N_8
REMARK    3  A    between atoms: N_8  and  C_9
REMARK    4  A    between atoms: N_8  and  C_13
REMARK    5  A    between atoms: C_9  and  C_10
REMARK    6  A    between atoms: C_10  and  C_11
REMARK    7  A    between atoms: C_10  and  O_12
REMARK    8  A    between atoms: C_13  and  C_14
REMARK    9  A    between atoms: C_14  and  C_15
REMARK   10  A    between atoms: C_14  and  O_16
REMARK                            x       y       z     vdW  Elec       q    Type
REMARK                         _______ _______ _______ _____ _____    ______ ____
ROOT
ATOM      1  N   UNL     1     -30.039 -26.514  -3.079  0.00  0.00    +0.000 N 
ENDROOT
BRANCH   1   6
ATOM      2  C   UNL     1     -29.321 -30.569   0.966  0.00  0.00    +0.000 C 
ATOM      3  C   UNL     1     -29.499 -29.500  -0.067  0.00  0.00    +0.000 A 
ATOM      4  C   UNL     1     -30.702 -28.813  -0.186  0.00  0.00    +0.000 A 
ATOM      5  C   UNL     1     -30.873 -27.832  -1.176  0.00  0.00    +0.000 A 
ATOM      6  C   UNL     1     -29.869 -27.507  -2.106  0.00  0.00    +0.000 A 
ATOM      7  C   UNL     1     -28.665 -28.219  -1.956  0.00  0.00    +0.000 A 
ATOM      8  C   UNL     1     -28.480 -29.201  -0.968  0.00  0.00    +0.000 A 
ENDBRANCH   1   6
BRANCH   1   9
ATOM      9  C   UNL     1     -29.151 -25.326  -3.093  0.00  0.00    +0.000 C 
BRANCH   9  10
ATOM     10  C   UNL     1     -29.205 -24.521  -1.772  0.00  0.00    +0.000 C 
ATOM     11  C   UNL     1     -27.817 -24.034  -1.373  0.00  0.00    +0.000 C 
BRANCH  10  12
ATOM     12  O   UNL     1     -30.057 -23.375  -1.902  0.00  0.00    +0.000 OA
ATOM     13  H   UNL     1     -29.568 -22.690  -2.387  0.00  0.00    +0.000 HD
ENDBRANCH  10  12
ENDBRANCH   9  10
ENDBRANCH   1   9
BRANCH   1  14
ATOM     14  C   UNL     1     -31.342 -26.327  -3.767  0.00  0.00    +0.000 C 
BRANCH  14  15
ATOM     15  C   UNL     1     -31.356 -25.061  -4.658  0.00  0.00    +0.000 C 
ATOM     16  C   UNL     1     -31.792 -25.342  -6.091  0.00  0.00    +0.000 C 
BRANCH  15  17
ATOM     17  O   UNL     1     -32.212 -24.051  -4.125  0.00  0.00    +0.000 OA
ATOM     18  H   UNL     1     -31.631 -23.276  -3.985  0.00  0.00    +0.000 HD
ENDBRANCH  15  17
ENDBRANCH  14  15
ENDBRANCH   1  14
TORSDOF 7
ENDMDL
MODEL 4
REMARK VINA RESULT:    -3.959      2.059      4.468
REMARK INTER + INTRA:          -5.800
REMARK INTER:                  -5.358
REMARK INTRA:                  -0.442
REMARK UNBOUND:                -0.452
REMARK  Name = 
REMARK  10 active torsions:
REMARK  status: ('A' for Active; 'I' for Inactive)
REMARK    1  A    between atoms: C_1  and  C_2
REMARK    2  A    between atoms: C_5  and  N_8
REMARK    3  A    between atoms: N_8  and  C_9
REMARK    4  A    between atoms: N_8  and  C_13
REMARK    5  A    between atoms: C_9  and  C_10
REMARK    6  A    between atoms: C_10  and  C_11
REMARK    7  A    between atoms: C_10  and  O_12
REMARK    8  A    between atoms: C_13  and  C_14
REMARK    9  A    between atoms: C_14  and  C_15
REMARK   10  A    between atoms: C_14  and  O_16
REMARK                            x       y       z     vdW  Elec       q    Type
REMARK                         _______ _______ _______ _____ _____    ______ ____
ROOT
ATOM      1  N   UNL     1     -30.280 -26.249  -2.534  0.00  0.00    +0.000 N 
ENDROOT
BRANCH   1   6
ATOM      2  C   UNL     1     -32.779 -28.819  -7.059  0.00  0.00    +0.000 C 
ATOM      3  C   UNL     1     -32.120 -28.136  -5.900  0.00  0.00    +0.000 A 
ATOM      4  C   UNL     1     -30.868 -28.540  -5.450  0.00  0.00    +0.000 A 
ATOM      5  C   UNL     1     -30.268 -27.915  -4.344  0.00  0.00    +0.000 A 
ATOM      6  C   UNL     1     -30.892 -26.881  -3.624  0.00  0.00    +0.000 A 
ATOM      7  C   UNL     1     -32.156 -26.496  -4.109  0.00  0.00    +0.000 A 
ATOM      8  C   UNL     1     -32.765 -27.111  -5.215  0.00  0.00    +0.000 A 
ENDBRANCH   1   6
BRANCH   1   9
ATOM      9  C   UNL     1     -29.578 -24.956  -2.722  0.00  0.00    +0.000 C 
BRANCH   9  10
ATOM     10  C   UNL     1     -28.784 -24.517  -1.468  0.00  0.00    +0.000 C 
ATOM     11  C   UNL     1     -27.292 -24.430  -1.770  0.00  0.00    +0.000 C 
BRANCH  10  12
ATOM     12  O   UNL     1     -29.219 -23.230  -1.008  0.00  0.00    +0.000 OA
ATOM     13  H   UNL     1     -30.047 -23.010  -1.467  0.00  0.00    +0.000 HD
ENDBRANCH  10  12
ENDBRANCH   9  10
ENDBRANCH   1   9
BRANCH   1  14
ATOM     14  C   UNL     1     -29.859 -27.019  -1.336  0.00  0.00    +0.000 C 
BRANCH  14  15
ATOM     15  C   UNL     1     -30.964 -27.984  -0.844  0.00  0.00    +0.000 C 
ATOM     16  C   UNL     1     -30.529 -29.445  -0.845  0.00  0.00    +0.000 C 
BRANCH  15  17
ATOM     17  O   UNL     1     -31.403 -27.656   0.474  0.00  0.00    +0.000 OA
ATOM     18  H   UNL     1     -32.227 -28.167   0.600  0.00  0.00    +0.000 HD
ENDBRANCH  15  17
ENDBRANCH  14  15
ENDBRANCH   1  14
TORSDOF 7
ENDMDL
MODEL 5
REMARK VINA RESULT:    -3.950      2.272      5.031
REMARK INTER + INTRA:          -5.787
REMARK INTER:                  -5.148
REMARK INTRA:                  -0.640
REMARK UNBOUND:                -0.452
REMARK  Name = 
REMARK  10 active torsions:
REMARK  status: ('A' for Active; 'I' for Inactive)
REMARK    1  A    between atoms: C_1  and  C_2
REMARK    2  A    between atoms: C_5  and  N_8
REMARK    3  A    between atoms: N_8  and  C_9
REMARK    4  A    between atoms: N_8  and  C_13
REMARK    5  A    between atoms: C_9  and  C_10
REMARK    6  A    between atoms: C_10  and  C_11
REMARK    7  A    between atoms: C_10  and  O_12
REMARK    8  A    between atoms: C_13  and  C_14
REMARK    9  A    between atoms: C_14  and  C_15
REMARK   10  A    between atoms: C_14  and  O_16
REMARK                            x       y       z     vdW  Elec       q    Type
REMARK                         _______ _______ _______ _____ _____    ______ ____
ROOT
ATOM      1  N   UNL     1     -29.349 -26.534  -3.005  0.00  0.00    +0.000 N 
ENDROOT
BRANCH   1   6
ATOM      2  C   UNL     1     -34.258 -25.474  -5.851  0.00  0.00    +0.000 C 
ATOM      3  C   UNL     1     -32.997 -25.749  -5.091  0.00  0.00    +0.000 A 
ATOM      4  C   UNL     1     -32.190 -24.708  -4.645  0.00  0.00    +0.000 A 
ATOM      5  C   UNL     1     -30.993 -24.973  -3.959  0.00  0.00    +0.000 A 
ATOM      6  C   UNL     1     -30.533 -26.278  -3.706  0.00  0.00    +0.000 A 
ATOM      7  C   UNL     1     -31.375 -27.305  -4.170  0.00  0.00    +0.000 A 
ATOM      8  C   UNL     1     -32.576 -27.055  -4.855  0.00  0.00    +0.000 A 
ENDBRANCH   1   6
BRANCH   1   9
ATOM      9  C   UNL     1     -28.119 -25.767  -3.317  0.00  0.00    +0.000 C 
BRANCH   9  10
ATOM     10  C   UNL     1     -27.561 -25.003  -2.092  0.00  0.00    +0.000 C 
ATOM     11  C   UNL     1     -28.675 -24.276  -1.349  0.00  0.00    +0.000 C 
BRANCH  10  12
ATOM     12  O   UNL     1     -26.925 -25.900  -1.171  0.00  0.00    +0.000 OA
ATOM     13  H   UNL     1     -26.173 -25.435  -0.768  0.00  0.00    +0.000 HD
ENDBRANCH  10  12
ENDBRANCH   9  10
ENDBRANCH   1   9
BRANCH   1  14
ATOM     14  C   UNL     1     -29.117 -27.842  -2.339  0.00  0.00    +0.000 C 
BRANCH  14  15
ATOM     15  C   UNL     1     -29.732 -27.892  -0.920  0.00  0.00    +0.000 C 
ATOM     16  C   UNL     1     -30.735 -29.026  -0.741  0.00  0.00    +0.000 C 
BRANCH  15  17
ATOM     17  O   UNL     1     -28.728 -28.028   0.085  0.00  0.00    +0.000 OA
ATOM     18  H   UNL     1     -29.131 -27.657   0.896  0.00  0.00    +0.000 HD
ENDBRANCH  15  17
ENDBRANCH  14  15
ENDBRANCH   1  14
TORSDOF 7
ENDMDL
MODEL 6
REMARK VINA RESULT:    -3.940      2.406      4.958
REMARK INTER + INTRA:          -5.774
REMARK INTER:                  -5.046
REMARK INTRA:                  -0.728
REMARK UNBOUND:                -0.452
REMARK  Name = 
REMARK  10 active torsions:
REMARK  status: ('A' for Active; 'I' for Inactive)
REMARK    1  A    between atoms: C_1  and  C_2
REMARK    2  A    between atoms: C_5  and  N_8
REMARK    3  A    between atoms: N_8  and  C_9
REMARK    4  A    between atoms: N_8  and  C_13
REMARK    5  A    between atoms: C_9  and  C_10
REMARK    6  A    between atoms: C_10  and  C_11
REMARK    7  A    between atoms: C_10  and  O_12
REMARK    8  A    between atoms: C_13  and  C_14
REMARK    9  A    between atoms: C_14  and  C_15
REMARK   10  A    between atoms: C_14  and  O_16
REMARK                            x       y       z     vdW  Elec       q    Type
REMARK                         _______ _______ _______ _____ _____    ______ ____
ROOT
ATOM      1  N   UNL     1     -29.556 -26.667  -2.527  0.00  0.00    +0.000 N 
ENDROOT
BRANCH   1   6
ATOM      2  C   UNL     1     -34.004 -25.215  -5.909  0.00  0.00    +0.000 C 
ATOM      3  C   UNL     1     -32.836 -25.597  -5.052  0.00  0.00    +0.000 A 
ATOM      4  C   UNL     1     -32.697 -26.895  -4.571  0.00  0.00    +0.000 A 
ATOM      5  C   UNL     1     -31.617 -27.240  -3.743  0.00  0.00    +0.000 A 
ATOM      6  C   UNL     1     -30.642 -26.311  -3.337  0.00  0.00    +0.000 A 
ATOM      7  C   UNL     1     -30.813 -25.009  -3.843  0.00  0.00    +0.000 A 
ATOM      8  C   UNL     1     -31.888 -24.651  -4.673  0.00  0.00    +0.000 A 
ENDBRANCH   1   6
BRANCH   1   9
ATOM      9  C   UNL     1     -29.425 -28.057  -2.027  0.00  0.00    +0.000 C 
BRANCH   9  10
ATOM     10  C   UNL     1     -29.618 -28.164  -0.495  0.00  0.00    +0.000 C 
ATOM     11  C   UNL     1     -30.677 -29.205  -0.150  0.00  0.00    +0.000 C 
BRANCH  10  12
ATOM     12  O   UNL     1     -28.396 -28.544   0.152  0.00  0.00    +0.000 OA
ATOM     13  H   UNL     1     -27.686 -28.529  -0.511  0.00  0.00    +0.000 HD
ENDBRANCH  10  12
ENDBRANCH   9  10
ENDBRANCH   1   9
BRANCH   1  14
ATOM     14  C   UNL     1     -28.820 -25.647  -1.736  0.00  0.00    +0.000 C 
BRANCH  14  15
ATOM     15  C   UNL     1     -27.300 -25.671  -2.021  0.00  0.00    +0.000 C 
ATOM     16  C   UNL     1     -26.695 -24.280  -2.166  0.00  0.00    +0.000 C 
BRANCH  15  17
ATOM     17  O   UNL     1     -26.582 -26.361  -0.999  0.00  0.00    +0.000 OA
ATOM     18  H   UNL     1     -25.985 -25.689  -0.612  0.00  0.00    +0.000 HD
ENDBRANCH  15  17
ENDBRANCH  14  15
ENDBRANCH   1  14
TORSDOF 7
ENDMDL
MODEL 7
REMARK VINA RESULT:    -3.907      2.223      3.699
REMARK INTER + INTRA:          -5.729
REMARK INTER:                  -5.234
REMARK INTRA:                  -0.495
REMARK UNBOUND:                -0.452
REMARK  Name = 
REMARK  10 active torsions:
REMARK  status: ('A' for Active; 'I' for Inactive)
REMARK    1  A    between atoms: C_1  and  C_2
REMARK    2  A    between atoms: C_5  and  N_8
REMARK    3  A    between atoms: N_8  and  C_9
REMARK    4  A    between atoms: N_8  and  C_13
REMARK    5  A    between atoms: C_9  and  C_10
REMARK    6  A    between atoms: C_10  and  C_11
REMARK    7  A    between atoms: C_10  and  O_12
REMARK    8  A    between atoms: C_13  and  C_14
REMARK    9  A    between atoms: C_14  and  C_15
REMARK   10  A    between atoms: C_14  and  O_16
REMARK                            x       y       z     vdW  Elec       q    Type
REMARK                         _______ _______ _______ _____ _____    ______ ____
ROOT
ATOM      1  N   UNL     1     -30.498 -25.740  -5.222  0.00  0.00    +0.000 N 
ENDROOT
BRANCH   1   6
ATOM      2  C   UNL     1     -30.366 -28.134   0.029  0.00  0.00    +0.000 C 
ATOM      3  C   UNL     1     -30.382 -27.528  -1.341  0.00  0.00    +0.000 A 
ATOM      4  C   UNL     1     -29.615 -26.406  -1.634  0.00  0.00    +0.000 A 
ATOM      5  C   UNL     1     -29.657 -25.824  -2.912  0.00  0.00    +0.000 A 
ATOM      6  C   UNL     1     -30.476 -26.314  -3.945  0.00  0.00    +0.000 A 
ATOM      7  C   UNL     1     -31.236 -27.450  -3.613  0.00  0.00    +0.000 A 
ATOM      8  C   UNL     1     -31.202 -28.043  -2.340  0.00  0.00    +0.000 A 
ENDBRANCH   1   6
BRANCH   1   9
ATOM      9  C   UNL     1     -31.617 -26.034  -6.150  0.00  0.00    +0.000 C 
BRANCH   9  10
ATOM     10  C   UNL     1     -32.790 -25.032  -6.012  0.00  0.00    +0.000 C 
ATOM     11  C   UNL     1     -34.007 -25.700  -5.382  0.00  0.00    +0.000 C 
BRANCH  10  12
ATOM     12  O   UNL     1     -32.420 -23.917  -5.189  0.00  0.00    +0.000 OA
ATOM     13  H   UNL     1     -33.095 -23.226  -5.296  0.00  0.00    +0.000 HD
ENDBRANCH  10  12
ENDBRANCH   9  10
ENDBRANCH   1   9
BRANCH   1  14
ATOM     14  C   UNL     1     -29.249 -25.276  -5.878  0.00  0.00    +0.000 C 
BRANCH  14  15
ATOM     15  C   UNL     1     -29.441 -25.033  -7.395  0.00  0.00    +0.000 C 
ATOM     16  C   UNL     1     -29.575 -23.557  -7.753  0.00  0.00    +0.000 C 
BRANCH  15  17
ATOM     17  O   UNL     1     -28.365 -25.577  -8.156  0.00  0.00    +0.000 OA
ATOM     18  H   UNL     1     -27.561 -25.379  -7.635  0.00  0.00    +0.000 HD
ENDBRANCH  15  17
ENDBRANCH  14  15
ENDBRANCH   1  14
TORSDOF 7
ENDMDL
MODEL 8
REMARK VINA RESULT:    -3.823     13.307     14.960
REMARK INTER + INTRA:          -5.615
REMARK INTER:                  -4.790
REMARK INTRA:                  -0.825
REMARK UNBOUND:                -0.452
REMARK  Name = 
REMARK  10 active torsions:
REMARK  status: ('A' for Active; 'I' for Inactive)
REMARK    1  A    between atoms: C_1  and  C_2
REMARK    2  A    between atoms: C_5  and  N_8
REMARK    3  A    between atoms: N_8  and  C_9
REMARK    4  A    between atoms: N_8  and  C_13
REMARK    5  A    between atoms: C_9  and  C_10
REMARK    6  A    between atoms: C_10  and  C_11
REMARK    7  A    between atoms: C_10  and  O_12
REMARK    8  A    between atoms: C_13  and  C_14
REMARK    9  A    between atoms: C_14  and  C_15
REMARK   10  A    between atoms: C_14  and  O_16
REMARK                            x       y       z     vdW  Elec       q    Type
REMARK                         _______ _______ _______ _____ _____    ______ ____
ROOT
ATOM      1  N   UNL     1     -45.286 -24.634  -3.150  0.00  0.00    +0.000 N 
ENDROOT
BRANCH   1   6
ATOM      2  C   UNL     1     -42.018 -20.175  -1.489  0.00  0.00    +0.000 C 
ATOM      3  C   UNL     1     -42.858 -21.329  -1.944  0.00  0.00    +0.000 A 
ATOM      4  C   UNL     1     -44.178 -21.140  -2.338  0.00  0.00    +0.000 A 
ATOM      5  C   UNL     1     -44.970 -22.230  -2.735  0.00  0.00    +0.000 A 
ATOM      6  C   UNL     1     -44.497 -23.554  -2.735  0.00  0.00    +0.000 A 
ATOM      7  C   UNL     1     -43.157 -23.708  -2.332  0.00  0.00    +0.000 A 
ATOM      8  C   UNL     1     -42.354 -22.626  -1.936  0.00  0.00    +0.000 A 
ENDBRANCH   1   6
BRANCH   1   9
ATOM      9  C   UNL     1     -45.560 -24.844  -4.592  0.00  0.00    +0.000 C 
BRANCH   9  10
ATOM     10  C   UNL     1     -44.502 -25.742  -5.279  0.00  0.00    +0.000 C 
ATOM     11  C   UNL     1     -43.389 -24.900  -5.893  0.00  0.00    +0.000 C 
BRANCH  10  12
ATOM     12  O   UNL     1     -43.907 -26.647  -4.340  0.00  0.00    +0.000 OA
ATOM     13  H   UNL     1     -42.999 -26.833  -4.633  0.00  0.00    +0.000 HD
ENDBRANCH  10  12
ENDBRANCH   9  10
ENDBRANCH   1   9
BRANCH   1  14
ATOM     14  C   UNL     1     -46.263 -25.271  -2.230  0.00  0.00    +0.000 C 
BRANCH  14  15
ATOM     15  C   UNL     1     -45.575 -26.182  -1.186  0.00  0.00    +0.000 C 
ATOM     16  C   UNL     1     -46.478 -26.534  -0.009  0.00  0.00    +0.000 C 
BRANCH  15  17
ATOM     17  O   UNL     1     -45.115 -27.400  -1.770  0.00  0.00    +0.000 OA
ATOM     18  H   UNL     1     -45.752 -28.080  -1.471  0.00  0.00    +0.000 HD
ENDBRANCH  15  17
ENDBRANCH  14  15
ENDBRANCH   1  14
TORSDOF 7
ENDMDL
MODEL 9
REMARK VINA RESULT:    -3.781     16.618     18.027
REMARK INTER + INTRA:          -5.559
REMARK INTER:                  -5.014
REMARK INTRA:                  -0.545
REMARK UNBOUND:                -0.452
REMARK  Name = 
REMARK  10 active torsions:
REMARK  status: ('A' for Active; 'I' for Inactive)
REMARK    1  A    between atoms: C_1  and  C_2
REMARK    2  A    between atoms: C_5  and  N_8
REMARK    3  A    between atoms: N_8  and  C_9
REMARK    4  A    between atoms: N_8  and  C_13
REMARK    5  A    between atoms: C_9  and  C_10
REMARK    6  A    between atoms: C_10  and  C_11
REMARK    7  A    between atoms: C_10  and  O_12
REMARK    8  A    between atoms: C_13  and  C_14
REMARK    9  A    between atoms: C_14  and  C_15
REMARK   10  A    between atoms: C_14  and  O_16
REMARK                            x       y       z     vdW  Elec       q    Type
REMARK                         _______ _______ _______ _____ _____    ______ ____
ROOT
ATOM      1  N   UNL     1     -42.912 -14.809   3.395  0.00  0.00    +0.000 N 
ENDROOT
BRANCH   1   6
ATOM      2  C   UNL     1     -38.212 -14.835   0.043  0.00  0.00    +0.000 C 
ATOM      3  C   UNL     1     -39.426 -14.852   0.919  0.00  0.00    +0.000 A 
ATOM      4  C   UNL     1     -40.670 -15.212   0.410  0.00  0.00    +0.000 A 
ATOM      5  C   UNL     1     -41.810 -15.197   1.229  0.00  0.00    +0.000 A 
ATOM      6  C   UNL     1     -41.774 -14.803   2.579  0.00  0.00    +0.000 A 
ATOM      7  C   UNL     1     -40.500 -14.447   3.060  0.00  0.00    +0.000 A 
ATOM      8  C   UNL     1     -39.351 -14.460   2.253  0.00  0.00    +0.000 A 
ENDBRANCH   1   6
BRANCH   1   9
ATOM      9  C   UNL     1     -44.159 -15.458   2.926  0.00  0.00    +0.000 C 
BRANCH   9  10
ATOM     10  C   UNL     1     -44.209 -16.970   3.256  0.00  0.00    +0.000 C 
ATOM     11  C   UNL     1     -45.103 -17.236   4.461  0.00  0.00    +0.000 C 
BRANCH  10  12
ATOM     12  O   UNL     1     -44.724 -17.722   2.147  0.00  0.00    +0.000 OA
ATOM     13  H   UNL     1     -45.169 -18.511   2.499  0.00  0.00    +0.000 HD
ENDBRANCH  10  12
ENDBRANCH   9  10
ENDBRANCH   1   9
BRANCH   1  14
ATOM     14  C   UNL     1     -43.101 -13.789   4.459  0.00  0.00    +0.000 C 
BRANCH  14  15
ATOM     15  C   UNL     1     -42.832 -14.362   5.871  0.00  0.00    +0.000 C 
ATOM     16  C   UNL     1     -44.093 -14.485   6.718  0.00  0.00    +0.000 C 
BRANCH  15  17
ATOM     17  O   UNL     1     -42.214 -15.647   5.810  0.00  0.00    +0.000 OA
ATOM     18  H   UNL     1     -42.471 -16.090   6.644  0.00  0.00    +0.000 HD
ENDBRANCH  15  17
ENDBRANCH  14  15
ENDBRANCH   1  14
TORSDOF 7
ENDMDL
