MODEL 1
REMARK VINA RESULT:    -4.434      0.000      0.000
REMARK INTER + INTRA:          -4.860
REMARK INTER:                  -4.823
REMARK INTRA:                  -0.037
REMARK UNBOUND:                -0.037
REMARK  Name = 
REMARK  3 active torsions:
REMARK  status: ('A' for Active; 'I' for Inactive)
REMARK    1  A    between atoms: C_1  and  O_2
REMARK    2  A    between atoms: O_2  and  C_3
REMARK    3  A    between atoms: C_8  and  O_9
REMARK                            x       y       z     vdW  Elec       q    Type
REMARK                         _______ _______ _______ _____ _____    ______ ____
ROOT
ATOM      1  C   UNL     1      -3.543 -15.262  -8.313  0.00  0.00    +0.000 A 
ATOM      2  C   UNL     1      -4.305 -15.414  -9.470  0.00  0.00    +0.000 A 
ATOM      3  C   UNL     1      -5.244 -14.436  -9.823  0.00  0.00    +0.000 A 
ATOM      4  C   UNL     1      -5.426 -13.308  -9.021  0.00  0.00    +0.000 A 
ATOM      5  C   UNL     1      -4.668 -13.149  -7.863  0.00  0.00    +0.000 A 
ATOM      6  C   UNL     1      -3.739 -14.123  -7.521  0.00  0.00    +0.000 A 
ENDROOT
BRANCH   1   8
ATOM      7  C   UNL     1      -2.254 -17.220  -8.703  0.00  0.00    +0.000 C 
ATOM      8  O   UNL     1      -2.592 -16.135  -7.847  0.00  0.00    +0.000 OA
ENDBRANCH   1   8
BRANCH   6   9
ATOM      9  O   UNL     1      -3.006 -13.945  -6.378  0.00  0.00    +0.000 OA
ATOM     10  H   UNL     1      -3.173 -13.019  -6.118  0.00  0.00    +0.000 HD
ENDBRANCH   6   9
TORSDOF 2
ENDMDL
MODEL 2
REMARK VINA RESULT:    -4.333      1.990      2.917
REMARK INTER + INTRA:          -4.750
REMARK INTER:                  -4.711
REMARK INTRA:                  -0.039
REMARK UNBOUND:                -0.037
REMARK  Name = 
REMARK  3 active torsions:
REMARK  status: ('A' for Active; 'I' for Inactive)
REMARK    1  A    between atoms: C_1  and  O_2
REMARK    2  A    between atoms: O_2  and  C_3
REMARK    3  A    between atoms: C_8  and  O_9
REMARK                            x       y       z     vdW  Elec       q    Type
REMARK                         _______ _______ _______ _____ _____    ______ ____
ROOT
ATOM      1  C   UNL     1      -5.238 -13.094  -7.876  0.00  0.00    +0.000 A 
ATOM      2  C   UNL     1      -5.289 -13.778  -9.090  0.00  0.00    +0.000 A 
ATOM      3  C   UNL     1      -6.040 -13.261 -10.154  0.00  0.00    +0.000 A 
ATOM      4  C   UNL     1      -6.741 -12.062 -10.008  0.00  0.00    +0.000 A 
ATOM      5  C   UNL     1      -6.694 -11.373  -8.798  0.00  0.00    +0.000 A 
ATOM      6  C   UNL     1      -5.947 -11.894  -7.749  0.00  0.00    +0.000 A 
ENDROOT
BRANCH   1   8
ATOM      7  C   UNL     1      -3.486 -14.408  -6.953  0.00  0.00    +0.000 C 
ATOM      8  O   UNL     1      -4.548 -13.481  -6.756  0.00  0.00    +0.000 OA
ENDBRANCH   1   8
BRANCH   6   9
ATOM      9  O   UNL     1      -5.917 -11.198  -6.570  0.00  0.00    +0.000 OA
ATOM     10  H   UNL     1      -6.771 -10.726  -6.538  0.00  0.00    +0.000 HD
ENDBRANCH   6   9
TORSDOF 2
ENDMDL
MODEL 3
REMARK VINA RESULT:    -4.332      1.338      3.337
REMARK INTER + INTRA:          -4.749
REMARK INTER:                  -4.711
REMARK INTRA:                  -0.038
REMARK UNBOUND:                -0.037
REMARK  Name = 
REMARK  3 active torsions:
REMARK  status: ('A' for Active; 'I' for Inactive)
REMARK    1  A    between atoms: C_1  and  O_2
REMARK    2  A    between atoms: O_2  and  C_3
REMARK    3  A    between atoms: C_8  and  O_9
REMARK                            x       y       z     vdW  Elec       q    Type
REMARK                         _______ _______ _______ _____ _____    ______ ____
ROOT
ATOM      1  C   UNL     1      -5.030 -13.232  -8.059  0.00  0.00    +0.000 A 
ATOM      2  C   UNL     1      -5.688 -13.525  -9.252  0.00  0.00    +0.000 A 
ATOM      3  C   UNL     1      -5.301 -14.639 -10.009  0.00  0.00    +0.000 A 
ATOM      4  C   UNL     1      -4.259 -15.461  -9.577  0.00  0.00    +0.000 A 
ATOM      5  C   UNL     1      -3.597 -15.175  -8.385  0.00  0.00    +0.000 A 
ATOM      6  C   UNL     1      -3.987 -14.068  -7.641  0.00  0.00    +0.000 A 
ENDROOT
BRANCH   1   8
ATOM      7  C   UNL     1      -6.472 -11.425  -7.507  0.00  0.00    +0.000 C 
ATOM      8  O   UNL     1      -5.300 -12.180  -7.221  0.00  0.00    +0.000 OA
ENDBRANCH   1   8
BRANCH   6   9
ATOM      9  O   UNL     1      -3.321 -13.807  -6.473  0.00  0.00    +0.000 OA
ATOM     10  H   UNL     1      -2.978 -14.674  -6.184  0.00  0.00    +0.000 HD
ENDBRANCH   6   9
TORSDOF 2
ENDMDL
MODEL 4
REMARK VINA RESULT:    -4.332      1.952      2.651
REMARK INTER + INTRA:          -4.749
REMARK INTER:                  -4.707
REMARK INTRA:                  -0.042
REMARK UNBOUND:                -0.037
REMARK  Name = 
REMARK  3 active torsions:
REMARK  status: ('A' for Active; 'I' for Inactive)
REMARK    1  A    between atoms: C_1  and  O_2
REMARK    2  A    between atoms: O_2  and  C_3
REMARK    3  A    between atoms: C_8  and  O_9
REMARK                            x       y       z     vdW  Elec       q    Type
REMARK                         _______ _______ _______ _____ _____    ______ ____
ROOT
ATOM      1  C   UNL     1      -5.222 -13.521  -8.751  0.00  0.00    +0.000 A 
ATOM      2  C   UNL     1      -5.943 -12.695  -9.613  0.00  0.00    +0.000 A 
ATOM      3  C   UNL     1      -6.673 -11.615  -9.100  0.00  0.00    +0.000 A 
ATOM      4  C   UNL     1      -6.686 -11.358  -7.728  0.00  0.00    +0.000 A 
ATOM      5  C   UNL     1      -5.967 -12.178  -6.860  0.00  0.00    +0.000 A 
ATOM      6  C   UNL     1      -5.247 -13.246  -7.378  0.00  0.00    +0.000 A 
ENDROOT
BRANCH   1   8
ATOM      7  C   UNL     1      -4.926 -15.355 -10.232  0.00  0.00    +0.000 C 
ATOM      8  O   UNL     1      -4.468 -14.608  -9.112  0.00  0.00    +0.000 OA
ENDBRANCH   1   8
BRANCH   6   9
ATOM      9  O   UNL     1      -4.549 -14.038  -6.506  0.00  0.00    +0.000 OA
ATOM     10  H   UNL     1      -3.723 -14.260  -6.978  0.00  0.00    +0.000 HD
ENDBRANCH   6   9
TORSDOF 2
ENDMDL
MODEL 5
REMARK VINA RESULT:    -4.233      2.605      4.255
REMARK INTER + INTRA:          -4.641
REMARK INTER:                  -4.606
REMARK INTRA:                  -0.035
REMARK UNBOUND:                -0.037
REMARK  Name = 
REMARK  3 active torsions:
REMARK  status: ('A' for Active; 'I' for Inactive)
REMARK    1  A    between atoms: C_1  and  O_2
REMARK    2  A    between atoms: O_2  and  C_3
REMARK    3  A    between atoms: C_8  and  O_9
REMARK                            x       y       z     vdW  Elec       q    Type
REMARK                         _______ _______ _______ _____ _____    ______ ____
ROOT
ATOM      1  C   UNL     1      -4.968 -12.543  -8.712  0.00  0.00    +0.000 A 
ATOM      2  C   UNL     1      -3.923 -13.113  -7.985  0.00  0.00    +0.000 A 
ATOM      3  C   UNL     1      -3.550 -14.442  -8.222  0.00  0.00    +0.000 A 
ATOM      4  C   UNL     1      -4.218 -15.205  -9.182  0.00  0.00    +0.000 A 
ATOM      5  C   UNL     1      -5.262 -14.642  -9.912  0.00  0.00    +0.000 A 
ATOM      6  C   UNL     1      -5.626 -13.324  -9.670  0.00  0.00    +0.000 A 
ENDROOT
BRANCH   1   8
ATOM      7  C   UNL     1      -6.270 -10.997  -7.462  0.00  0.00    +0.000 C 
ATOM      8  O   UNL     1      -5.439 -11.261  -8.586  0.00  0.00    +0.000 OA
ENDBRANCH   1   8
BRANCH   6   9
ATOM      9  O   UNL     1      -6.656 -12.793 -10.400  0.00  0.00    +0.000 OA
ATOM     10  H   UNL     1      -7.387 -13.433 -10.300  0.00  0.00    +0.000 HD
ENDBRANCH   6   9
TORSDOF 2
ENDMDL
MODEL 6
REMARK VINA RESULT:    -4.037      9.247     10.476
REMARK INTER + INTRA:          -4.429
REMARK INTER:                  -4.389
REMARK INTRA:                  -0.040
REMARK UNBOUND:                -0.037
REMARK  Name = 
REMARK  3 active torsions:
REMARK  status: ('A' for Active; 'I' for Inactive)
REMARK    1  A    between atoms: C_1  and  O_2
REMARK    2  A    between atoms: O_2  and  C_3
REMARK    3  A    between atoms: C_8  and  O_9
REMARK                            x       y       z     vdW  Elec       q    Type
REMARK                         _______ _______ _______ _____ _____    ______ ____
ROOT
ATOM      1  C   UNL     1     -11.444 -11.338 -13.386  0.00  0.00    +0.000 A 
ATOM      2  C   UNL     1     -11.493 -10.673 -12.162  0.00  0.00    +0.000 A 
ATOM      3  C   UNL     1     -11.946  -9.350 -12.102  0.00  0.00    +0.000 A 
ATOM      4  C   UNL     1     -12.350  -8.687 -13.263  0.00  0.00    +0.000 A 
ATOM      5  C   UNL     1     -12.305  -9.345 -14.490  0.00  0.00    +0.000 A 
ATOM      6  C   UNL     1     -11.854 -10.658 -14.539  0.00  0.00    +0.000 A 
ENDROOT
BRANCH   1   8
ATOM      7  C   UNL     1     -11.118 -13.512 -12.482  0.00  0.00    +0.000 C 
ATOM      8  O   UNL     1     -11.025 -12.628 -13.593  0.00  0.00    +0.000 OA
ENDBRANCH   1   8
BRANCH   6   9
ATOM      9  O   UNL     1     -11.819 -11.283 -15.757  0.00  0.00    +0.000 OA
ATOM     10  H   UNL     1     -12.534 -10.864 -16.273  0.00  0.00    +0.000 HD
ENDBRANCH   6   9
TORSDOF 2
ENDMDL
MODEL 7
REMARK VINA RESULT:    -3.975      2.989      3.875
REMARK INTER + INTRA:          -4.361
REMARK INTER:                  -4.323
REMARK INTRA:                  -0.038
REMARK UNBOUND:                -0.037
REMARK  Name = 
REMARK  3 active torsions:
REMARK  status: ('A' for Active; 'I' for Inactive)
REMARK    1  A    between atoms: C_1  and  O_2
REMARK    2  A    between atoms: O_2  and  C_3
REMARK    3  A    between atoms: C_8  and  O_9
REMARK                            x       y       z     vdW  Elec       q    Type
REMARK                         _______ _______ _______ _____ _____    ______ ____
ROOT
ATOM      1  C   UNL     1      -5.817 -13.292  -9.429  0.00  0.00    +0.000 A 
ATOM      2  C   UNL     1      -5.169 -13.592  -8.231  0.00  0.00    +0.000 A 
ATOM      3  C   UNL     1      -5.333 -12.757  -7.119  0.00  0.00    +0.000 A 
ATOM      4  C   UNL     1      -6.141 -11.621  -7.199  0.00  0.00    +0.000 A 
ATOM      5  C   UNL     1      -6.792 -11.315  -8.392  0.00  0.00    +0.000 A 
ATOM      6  C   UNL     1      -6.623 -12.149  -9.490  0.00  0.00    +0.000 A 
ENDROOT
BRANCH   1   8
ATOM      7  C   UNL     1      -5.136 -15.297 -10.506  0.00  0.00    +0.000 C 
ATOM      8  O   UNL     1      -5.747 -14.016 -10.592  0.00  0.00    +0.000 OA
ENDBRANCH   1   8
BRANCH   6   9
ATOM      9  O   UNL     1      -7.272 -11.826 -10.652  0.00  0.00    +0.000 OA
ATOM     10  H   UNL     1      -7.628 -10.930 -10.498  0.00  0.00    +0.000 HD
ENDBRANCH   6   9
TORSDOF 2
ENDMDL
MODEL 8
REMARK VINA RESULT:    -3.840     10.058     10.863
REMARK INTER + INTRA:          -4.214
REMARK INTER:                  -4.172
REMARK INTRA:                  -0.043
REMARK UNBOUND:                -0.037
REMARK  Name = 
REMARK  3 active torsions:
REMARK  status: ('A' for Active; 'I' for Inactive)
REMARK    1  A    between atoms: C_1  and  O_2
REMARK    2  A    between atoms: O_2  and  C_3
REMARK    3  A    between atoms: C_8  and  O_9
REMARK                            x       y       z     vdW  Elec       q    Type
REMARK                         _______ _______ _______ _____ _____    ______ ____
ROOT
ATOM      1  C   UNL     1     -11.623 -11.024 -14.424  0.00  0.00    +0.000 A 
ATOM      2  C   UNL     1     -11.420 -11.621 -13.180  0.00  0.00    +0.000 A 
ATOM      3  C   UNL     1     -11.681 -10.900 -12.007  0.00  0.00    +0.000 A 
ATOM      4  C   UNL     1     -12.144  -9.585 -12.073  0.00  0.00    +0.000 A 
ATOM      5  C   UNL     1     -12.350  -8.982 -13.312  0.00  0.00    +0.000 A 
ATOM      6  C   UNL     1     -12.088  -9.704 -14.470  0.00  0.00    +0.000 A 
ENDROOT
BRANCH   1   8
ATOM      7  C   UNL     1     -10.313 -12.508 -15.738  0.00  0.00    +0.000 C 
ATOM      8  O   UNL     1     -11.409 -11.607 -15.647  0.00  0.00    +0.000 OA
ENDBRANCH   1   8
BRANCH   6   9
ATOM      9  O   UNL     1     -12.298  -9.090 -15.676  0.00  0.00    +0.000 OA
ATOM     10  H   UNL     1     -11.736  -8.292 -15.650  0.00  0.00    +0.000 HD
ENDBRANCH   6   9
TORSDOF 2
ENDMDL
