MODEL 1
REMARK VINA RESULT:    -4.445      0.000      0.000
REMARK INTER + INTRA:          -4.872
REMARK INTER:                  -4.835
REMARK INTRA:                  -0.037
REMARK UNBOUND:                -0.037
REMARK  Name = 
REMARK  3 active torsions:
REMARK  status: ('A' for Active; 'I' for Inactive)
REMARK    1  A    between atoms: C_1  and  O_2
REMARK    2  A    between atoms: O_2  and  C_3
REMARK    3  A    between atoms: C_8  and  O_9
REMARK                            x       y       z     vdW  Elec       q    Type
REMARK                         _______ _______ _______ _____ _____    ______ ____
ROOT
ATOM      1  C   UNL     1      -3.553 -15.261  -8.356  0.00  0.00    +0.000 A 
ATOM      2  C   UNL     1      -4.311 -15.429  -9.514  0.00  0.00    +0.000 A 
ATOM      3  C   UNL     1      -5.266 -14.469  -9.870  0.00  0.00    +0.000 A 
ATOM      4  C   UNL     1      -5.467 -13.340  -9.073  0.00  0.00    +0.000 A 
ATOM      5  C   UNL     1      -4.713 -13.165  -7.915  0.00  0.00    +0.000 A 
ATOM      6  C   UNL     1      -3.768 -14.123  -7.569  0.00  0.00    +0.000 A 
ENDROOT
BRANCH   1   8
ATOM      7  C   UNL     1      -2.270 -17.229  -8.713  0.00  0.00    +0.000 C 
ATOM      8  O   UNL     1      -2.588 -16.116  -7.887  0.00  0.00    +0.000 OA
ENDBRANCH   1   8
BRANCH   6   9
ATOM      9  O   UNL     1      -3.040 -13.928  -6.426  0.00  0.00    +0.000 OA
ATOM     10  H   UNL     1      -2.285 -13.374  -6.703  0.00  0.00    +0.000 HD
ENDBRANCH   6   9
TORSDOF 2
ENDMDL
MODEL 2
REMARK VINA RESULT:    -4.337      1.911      2.625
REMARK INTER + INTRA:          -4.755
REMARK INTER:                  -4.713
REMARK INTRA:                  -0.042
REMARK UNBOUND:                -0.037
REMARK  Name = 
REMARK  3 active torsions:
REMARK  status: ('A' for Active; 'I' for Inactive)
REMARK    1  A    between atoms: C_1  and  O_2
REMARK    2  A    between atoms: O_2  and  C_3
REMARK    3  A    between atoms: C_8  and  O_9
REMARK                            x       y       z     vdW  Elec       q    Type
REMARK                         _______ _______ _______ _____ _____    ______ ____
ROOT
ATOM      1  C   UNL     1      -5.209 -13.525  -8.773  0.00  0.00    +0.000 A 
ATOM      2  C   UNL     1      -5.942 -12.728  -9.652  0.00  0.00    +0.000 A 
ATOM      3  C   UNL     1      -6.683 -11.646  -9.163  0.00  0.00    +0.000 A 
ATOM      4  C   UNL     1      -6.696 -11.356  -7.797  0.00  0.00    +0.000 A 
ATOM      5  C   UNL     1      -5.966 -12.147  -6.913  0.00  0.00    +0.000 A 
ATOM      6  C   UNL     1      -5.234 -13.219  -7.407  0.00  0.00    +0.000 A 
ENDROOT
BRANCH   1   8
ATOM      7  C   UNL     1      -4.890 -15.385 -10.217  0.00  0.00    +0.000 C 
ATOM      8  O   UNL     1      -4.443 -14.611  -9.111  0.00  0.00    +0.000 OA
ENDBRANCH   1   8
BRANCH   6   9
ATOM      9  O   UNL     1      -4.525 -13.982  -6.518  0.00  0.00    +0.000 OA
ATOM     10  H   UNL     1      -3.623 -14.025  -6.891  0.00  0.00    +0.000 HD
ENDBRANCH   6   9
TORSDOF 2
ENDMDL
MODEL 3
REMARK VINA RESULT:    -4.327      1.934      2.799
REMARK INTER + INTRA:          -4.744
REMARK INTER:                  -4.703
REMARK INTRA:                  -0.041
REMARK UNBOUND:                -0.037
REMARK  Name = 
REMARK  3 active torsions:
REMARK  status: ('A' for Active; 'I' for Inactive)
REMARK    1  A    between atoms: C_1  and  O_2
REMARK    2  A    between atoms: O_2  and  C_3
REMARK    3  A    between atoms: C_8  and  O_9
REMARK                            x       y       z     vdW  Elec       q    Type
REMARK                         _______ _______ _______ _____ _____    ______ ____
ROOT
ATOM      1  C   UNL     1      -5.189 -13.222  -7.938  0.00  0.00    +0.000 A 
ATOM      2  C   UNL     1      -5.219 -13.899  -9.157  0.00  0.00    +0.000 A 
ATOM      3  C   UNL     1      -5.957 -13.380 -10.228  0.00  0.00    +0.000 A 
ATOM      4  C   UNL     1      -6.667 -12.186 -10.085  0.00  0.00    +0.000 A 
ATOM      5  C   UNL     1      -6.641 -11.503  -8.871  0.00  0.00    +0.000 A 
ATOM      6  C   UNL     1      -5.906 -12.026  -7.814  0.00  0.00    +0.000 A 
ENDROOT
BRANCH   1   8
ATOM      7  C   UNL     1      -3.326 -14.371  -7.012  0.00  0.00    +0.000 C 
ATOM      8  O   UNL     1      -4.512 -13.612  -6.810  0.00  0.00    +0.000 OA
ENDBRANCH   1   8
BRANCH   6   9
ATOM      9  O   UNL     1      -5.896 -11.337  -6.631  0.00  0.00    +0.000 OA
ATOM     10  H   UNL     1      -5.012 -10.926  -6.590  0.00  0.00    +0.000 HD
ENDBRANCH   6   9
TORSDOF 2
ENDMDL
MODEL 4
REMARK VINA RESULT:    -4.313      1.300      3.243
REMARK INTER + INTRA:          -4.728
REMARK INTER:                  -4.686
REMARK INTRA:                  -0.042
REMARK UNBOUND:                -0.037
REMARK  Name = 
REMARK  3 active torsions:
REMARK  status: ('A' for Active; 'I' for Inactive)
REMARK    1  A    between atoms: C_1  and  O_2
REMARK    2  A    between atoms: O_2  and  C_3
REMARK    3  A    between atoms: C_8  and  O_9
REMARK                            x       y       z     vdW  Elec       q    Type
REMARK                         _______ _______ _______ _____ _____    ______ ____
ROOT
ATOM      1  C   UNL     1      -4.891 -13.387  -8.289  0.00  0.00    +0.000 A 
ATOM      2  C   UNL     1      -5.500 -13.806  -9.471  0.00  0.00    +0.000 A 
ATOM      3  C   UNL     1      -5.103 -15.006 -10.075  0.00  0.00    +0.000 A 
ATOM      4  C   UNL     1      -4.098 -15.788  -9.502  0.00  0.00    +0.000 A 
ATOM      5  C   UNL     1      -3.486 -15.376  -8.320  0.00  0.00    +0.000 A 
ATOM      6  C   UNL     1      -3.886 -14.184  -7.729  0.00  0.00    +0.000 A 
ENDROOT
BRANCH   1   8
ATOM      7  C   UNL     1      -5.558 -11.107  -8.363  0.00  0.00    +0.000 C 
ATOM      8  O   UNL     1      -5.177 -12.240  -7.591  0.00  0.00    +0.000 OA
ENDBRANCH   1   8
BRANCH   6   9
ATOM      9  O   UNL     1      -3.269 -13.800  -6.568  0.00  0.00    +0.000 OA
ATOM     10  H   UNL     1      -2.512 -14.410  -6.475  0.00  0.00    +0.000 HD
ENDBRANCH   6   9
TORSDOF 2
ENDMDL
MODEL 5
REMARK VINA RESULT:    -4.189      2.570      4.341
REMARK INTER + INTRA:          -4.593
REMARK INTER:                  -4.555
REMARK INTRA:                  -0.039
REMARK UNBOUND:                -0.037
REMARK  Name = 
REMARK  3 active torsions:
REMARK  status: ('A' for Active; 'I' for Inactive)
REMARK    1  A    between atoms: C_1  and  O_2
REMARK    2  A    between atoms: O_2  and  C_3
REMARK    3  A    between atoms: C_8  and  O_9
REMARK                            x       y       z     vdW  Elec       q    Type
REMARK                         _______ _______ _______ _____ _____    ______ ____
ROOT
ATOM      1  C   UNL     1      -5.722 -12.977  -8.309  0.00  0.00    +0.000 A 
ATOM      2  C   UNL     1      -4.949 -13.176  -7.166  0.00  0.00    +0.000 A 
ATOM      3  C   UNL     1      -3.971 -14.179  -7.148  0.00  0.00    +0.000 A 
ATOM      4  C   UNL     1      -3.764 -14.985  -8.268  0.00  0.00    +0.000 A 
ATOM      5  C   UNL     1      -4.532 -14.793  -9.414  0.00  0.00    +0.000 A 
ATOM      6  C   UNL     1      -5.499 -13.796  -9.423  0.00  0.00    +0.000 A 
ENDROOT
BRANCH   1   8
ATOM      7  C   UNL     1      -6.683 -10.933  -7.572  0.00  0.00    +0.000 C 
ATOM      8  O   UNL     1      -6.710 -12.039  -8.467  0.00  0.00    +0.000 OA
ENDBRANCH   1   8
BRANCH   6   9
ATOM      9  O   UNL     1      -6.242 -13.626 -10.561  0.00  0.00    +0.000 OA
ATOM     10  H   UNL     1      -5.845 -14.238 -11.210  0.00  0.00    +0.000 HD
ENDBRANCH   6   9
TORSDOF 2
ENDMDL
MODEL 6
REMARK VINA RESULT:    -4.073      2.517      3.416
REMARK INTER + INTRA:          -4.467
REMARK INTER:                  -4.430
REMARK INTRA:                  -0.037
REMARK UNBOUND:                -0.037
REMARK  Name = 
REMARK  3 active torsions:
REMARK  status: ('A' for Active; 'I' for Inactive)
REMARK    1  A    between atoms: C_1  and  O_2
REMARK    2  A    between atoms: O_2  and  C_3
REMARK    3  A    between atoms: C_8  and  O_9
REMARK                            x       y       z     vdW  Elec       q    Type
REMARK                         _______ _______ _______ _____ _____    ______ ____
ROOT
ATOM      1  C   UNL     1      -5.273 -13.528  -8.875  0.00  0.00    +0.000 A 
ATOM      2  C   UNL     1      -5.074 -13.024  -7.591  0.00  0.00    +0.000 A 
ATOM      3  C   UNL     1      -5.740 -11.860  -7.186  0.00  0.00    +0.000 A 
ATOM      4  C   UNL     1      -6.603 -11.197  -8.060  0.00  0.00    +0.000 A 
ATOM      5  C   UNL     1      -6.806 -11.695  -9.345  0.00  0.00    +0.000 A 
ATOM      6  C   UNL     1      -6.142 -12.850  -9.739  0.00  0.00    +0.000 A 
ENDROOT
BRANCH   1   8
ATOM      7  C   UNL     1      -3.750 -15.328  -8.578  0.00  0.00    +0.000 C 
ATOM      8  O   UNL     1      -4.690 -14.652  -9.405  0.00  0.00    +0.000 OA
ENDBRANCH   1   8
BRANCH   6   9
ATOM      9  O   UNL     1      -6.358 -13.320 -11.007  0.00  0.00    +0.000 OA
ATOM     10  H   UNL     1      -6.635 -14.248 -10.883  0.00  0.00    +0.000 HD
ENDBRANCH   6   9
TORSDOF 2
ENDMDL
MODEL 7
REMARK VINA RESULT:    -3.925      9.948     10.869
REMARK INTER + INTRA:          -4.307
REMARK INTER:                  -4.255
REMARK INTRA:                  -0.052
REMARK UNBOUND:                -0.037
REMARK  Name = 
REMARK  3 active torsions:
REMARK  status: ('A' for Active; 'I' for Inactive)
REMARK    1  A    between atoms: C_1  and  O_2
REMARK    2  A    between atoms: O_2  and  C_3
REMARK    3  A    between atoms: C_8  and  O_9
REMARK                            x       y       z     vdW  Elec       q    Type
REMARK                         _______ _______ _______ _____ _____    ______ ____
ROOT
ATOM      1  C   UNL     1     -11.561 -10.983 -14.339  0.00  0.00    +0.000 A 
ATOM      2  C   UNL     1     -11.370 -11.265 -12.987  0.00  0.00    +0.000 A 
ATOM      3  C   UNL     1     -11.667 -10.295 -12.022  0.00  0.00    +0.000 A 
ATOM      4  C   UNL     1     -12.153  -9.043 -12.403  0.00  0.00    +0.000 A 
ATOM      5  C   UNL     1     -12.347  -8.754 -13.751  0.00  0.00    +0.000 A 
ATOM      6  C   UNL     1     -12.050  -9.722 -14.702  0.00  0.00    +0.000 A 
ENDROOT
BRANCH   1   8
ATOM      7  C   UNL     1      -9.980 -12.313 -15.514  0.00  0.00    +0.000 C 
ATOM      8  O   UNL     1     -11.313 -11.833 -15.388  0.00  0.00    +0.000 OA
ENDBRANCH   1   8
BRANCH   6   9
ATOM      9  O   UNL     1     -12.248  -9.415 -16.022  0.00  0.00    +0.000 OA
ATOM     10  H   UNL     1     -13.043  -8.847 -16.028  0.00  0.00    +0.000 HD
ENDBRANCH   6   9
TORSDOF 2
ENDMDL
MODEL 8
REMARK VINA RESULT:    -3.814      9.321     10.195
REMARK INTER + INTRA:          -4.186
REMARK INTER:                  -4.133
REMARK INTRA:                  -0.052
REMARK UNBOUND:                -0.037
REMARK  Name = 
REMARK  3 active torsions:
REMARK  status: ('A' for Active; 'I' for Inactive)
REMARK    1  A    between atoms: C_1  and  O_2
REMARK    2  A    between atoms: O_2  and  C_3
REMARK    3  A    between atoms: C_8  and  O_9
REMARK                            x       y       z     vdW  Elec       q    Type
REMARK                         _______ _______ _______ _____ _____    ______ ____
ROOT
ATOM      1  C   UNL     1     -11.538 -11.287 -14.145  0.00  0.00    +0.000 A 
ATOM      2  C   UNL     1     -11.971 -10.154 -14.832  0.00  0.00    +0.000 A 
ATOM      3  C   UNL     1     -12.350  -9.007 -14.123  0.00  0.00    +0.000 A 
ATOM      4  C   UNL     1     -12.301  -8.990 -12.727  0.00  0.00    +0.000 A 
ATOM      5  C   UNL     1     -11.870 -10.118 -12.033  0.00  0.00    +0.000 A 
ATOM      6  C   UNL     1     -11.495 -11.250 -12.745  0.00  0.00    +0.000 A 
ENDROOT
BRANCH   1   8
ATOM      7  C   UNL     1      -9.926 -12.447 -15.449  0.00  0.00    +0.000 C 
ATOM      8  O   UNL     1     -11.139 -12.473 -14.706  0.00  0.00    +0.000 OA
ENDBRANCH   1   8
BRANCH   6   9
ATOM      9  O   UNL     1     -11.075 -12.347 -12.041  0.00  0.00    +0.000 OA
ATOM     10  H   UNL     1     -11.846 -12.946 -12.030  0.00  0.00    +0.000 HD
ENDBRANCH   6   9
TORSDOF 2
ENDMDL
MODEL 9
REMARK VINA RESULT:    -3.642      9.291     10.510
REMARK INTER + INTRA:          -3.998
REMARK INTER:                  -3.961
REMARK INTRA:                  -0.037
REMARK UNBOUND:                -0.037
REMARK  Name = 
REMARK  3 active torsions:
REMARK  status: ('A' for Active; 'I' for Inactive)
REMARK    1  A    between atoms: C_1  and  O_2
REMARK    2  A    between atoms: O_2  and  C_3
REMARK    3  A    between atoms: C_8  and  O_9
REMARK                            x       y       z     vdW  Elec       q    Type
REMARK                         _______ _______ _______ _____ _____    ______ ____
ROOT
ATOM      1  C   UNL     1     -11.590 -11.358 -13.463  0.00  0.00    +0.000 A 
ATOM      2  C   UNL     1     -11.588 -10.769 -12.199  0.00  0.00    +0.000 A 
ATOM      3  C   UNL     1     -11.966  -9.429 -12.050  0.00  0.00    +0.000 A 
ATOM      4  C   UNL     1     -12.345  -8.673 -13.161  0.00  0.00    +0.000 A 
ATOM      5  C   UNL     1     -12.351  -9.254 -14.427  0.00  0.00    +0.000 A 
ATOM      6  C   UNL     1     -11.974 -10.584 -14.565  0.00  0.00    +0.000 A 
ENDROOT
BRANCH   1   8
ATOM      7  C   UNL     1     -10.838 -13.464 -12.660  0.00  0.00    +0.000 C 
ATOM      8  O   UNL     1     -11.245 -12.653 -13.755  0.00  0.00    +0.000 OA
ENDBRANCH   1   8
BRANCH   6   9
ATOM      9  O   UNL     1     -11.987 -11.133 -15.820  0.00  0.00    +0.000 OA
ATOM     10  H   UNL     1     -11.109 -10.923 -16.192  0.00  0.00    +0.000 HD
ENDBRANCH   6   9
TORSDOF 2
ENDMDL
