MODEL 1
REMARK VINA RESULT:    -5.119      0.000      0.000
REMARK INTER + INTRA:          -7.365
REMARK INTER:                  -6.914
REMARK INTRA:                  -0.450
REMARK UNBOUND:                -0.450
REMARK  Name = 
REMARK  10 active torsions:
REMARK  status: ('A' for Active; 'I' for Inactive)
REMARK    1  A    between atoms: C_1  and  C_2
REMARK    2  A    between atoms: C_5  and  N_8
REMARK    3  A    between atoms: N_8  and  C_9
REMARK    4  A    between atoms: N_8  and  C_13
REMARK    5  A    between atoms: C_9  and  C_10
REMARK    6  A    between atoms: C_10  and  C_11
REMARK    7  A    between atoms: C_10  and  O_12
REMARK    8  A    between atoms: C_13  and  C_14
REMARK    9  A    between atoms: C_14  and  C_15
REMARK   10  A    between atoms: C_14  and  O_16
REMARK                            x       y       z     vdW  Elec       q    Type
REMARK                         _______ _______ _______ _____ _____    ______ ____
ROOT
ATOM      1  N   UNL     1      -4.194 -15.526  -9.514  0.00  0.00    +0.000 N 
ENDROOT
BRANCH   1   6
ATOM      2  C   UNL     1      -6.809 -10.711  -7.696  0.00  0.00    +0.000 C 
ATOM      3  C   UNL     1      -6.151 -11.973  -8.162  0.00  0.00    +0.000 A 
ATOM      4  C   UNL     1      -5.380 -12.740  -7.294  0.00  0.00    +0.000 A 
ATOM      5  C   UNL     1      -4.741 -13.907  -7.744  0.00  0.00    +0.000 A 
ATOM      6  C   UNL     1      -4.818 -14.351  -9.077  0.00  0.00    +0.000 A 
ATOM      7  C   UNL     1      -5.607 -13.553  -9.925  0.00  0.00    +0.000 A 
ATOM      8  C   UNL     1      -6.253 -12.385  -9.488  0.00  0.00    +0.000 A 
ENDBRANCH   1   6
BRANCH   1   9
ATOM      9  C   UNL     1      -4.563 -16.121 -10.821  0.00  0.00    +0.000 C 
BRANCH   9  10
ATOM     10  C   UNL     1      -5.561 -17.298 -10.685  0.00  0.00    +0.000 C 
ATOM     11  C   UNL     1      -6.906 -16.946 -11.309  0.00  0.00    +0.000 C 
BRANCH  10  12
ATOM     12  O   UNL     1      -5.062 -18.474 -11.337  0.00  0.00    +0.000 OA
ATOM     13  H   UNL     1      -4.717 -18.213 -12.207  0.00  0.00    +0.000 HD
ENDBRANCH  10  12
ENDBRANCH   9  10
ENDBRANCH   1   9
BRANCH   1  14
ATOM     14  C   UNL     1      -3.572 -16.471  -8.551  0.00  0.00    +0.000 C 
BRANCH  14  15
ATOM     15  C   UNL     1      -2.114 -16.080  -8.209  0.00  0.00    +0.000 C 
ATOM     16  C   UNL     1      -1.824 -16.097  -6.713  0.00  0.00    +0.000 C 
BRANCH  15  17
ATOM     17  O   UNL     1      -1.174 -16.941  -8.850  0.00  0.00    +0.000 OA
ATOM     18  H   UNL     1      -0.862 -16.438  -9.629  0.00  0.00    +0.000 HD
ENDBRANCH  15  17
ENDBRANCH  14  15
ENDBRANCH   1  14
TORSDOF 7
ENDMDL
MODEL 2
REMARK VINA RESULT:    -5.112      0.080      1.192
REMARK INTER + INTRA:          -7.356
REMARK INTER:                  -6.868
REMARK INTRA:                  -0.488
REMARK UNBOUND:                -0.450
REMARK  Name = 
REMARK  10 active torsions:
REMARK  status: ('A' for Active; 'I' for Inactive)
REMARK    1  A    between atoms: C_1  and  C_2
REMARK    2  A    between atoms: C_5  and  N_8
REMARK    3  A    between atoms: N_8  and  C_9
REMARK    4  A    between atoms: N_8  and  C_13
REMARK    5  A    between atoms: C_9  and  C_10
REMARK    6  A    between atoms: C_10  and  C_11
REMARK    7  A    between atoms: C_10  and  O_12
REMARK    8  A    between atoms: C_13  and  C_14
REMARK    9  A    between atoms: C_14  and  C_15
REMARK   10  A    between atoms: C_14  and  O_16
REMARK                            x       y       z     vdW  Elec       q    Type
REMARK                         _______ _______ _______ _____ _____    ______ ____
ROOT
ATOM      1  N   UNL     1      -4.225 -15.539  -9.472  0.00  0.00    +0.000 N 
ENDROOT
BRANCH   1   6
ATOM      2  C   UNL     1      -6.875 -10.763  -7.603  0.00  0.00    +0.000 C 
ATOM      3  C   UNL     1      -6.167 -11.989  -8.093  0.00  0.00    +0.000 A 
ATOM      4  C   UNL     1      -6.246 -12.375  -9.426  0.00  0.00    +0.000 A 
ATOM      5  C   UNL     1      -5.605 -13.542  -9.873  0.00  0.00    +0.000 A 
ATOM      6  C   UNL     1      -4.878 -14.387  -9.016  0.00  0.00    +0.000 A 
ATOM      7  C   UNL     1      -4.817 -13.965  -7.675  0.00  0.00    +0.000 A 
ATOM      8  C   UNL     1      -5.452 -12.799  -7.215  0.00  0.00    +0.000 A 
ENDBRANCH   1   6
BRANCH   1   9
ATOM      9  C   UNL     1      -4.562 -16.108 -10.800  0.00  0.00    +0.000 C 
BRANCH   9  10
ATOM     10  C   UNL     1      -5.580 -17.271 -10.713  0.00  0.00    +0.000 C 
ATOM     11  C   UNL     1      -6.921 -16.868 -11.316  0.00  0.00    +0.000 C 
BRANCH  10  12
ATOM     12  O   UNL     1      -5.105 -18.425 -11.420  0.00  0.00    +0.000 OA
ATOM     13  H   UNL     1      -5.835 -19.063 -11.482  0.00  0.00    +0.000 HD
ENDBRANCH  10  12
ENDBRANCH   9  10
ENDBRANCH   1   9
BRANCH   1  14
ATOM     14  C   UNL     1      -3.600 -16.496  -8.523  0.00  0.00    +0.000 C 
BRANCH  14  15
ATOM     15  C   UNL     1      -2.130 -16.130  -8.208  0.00  0.00    +0.000 C 
ATOM     16  C   UNL     1      -1.823 -16.111  -6.715  0.00  0.00    +0.000 C 
BRANCH  15  17
ATOM     17  O   UNL     1      -1.216 -17.029  -8.836  0.00  0.00    +0.000 OA
ATOM     18  H   UNL     1      -0.374 -16.912  -8.351  0.00  0.00    +0.000 HD
ENDBRANCH  15  17
ENDBRANCH  14  15
ENDBRANCH   1  14
TORSDOF 7
ENDMDL
MODEL 3
REMARK VINA RESULT:    -5.011      2.244      5.340
REMARK INTER + INTRA:          -7.219
REMARK INTER:                  -6.791
REMARK INTRA:                  -0.428
REMARK UNBOUND:                -0.450
REMARK  Name = 
REMARK  10 active torsions:
REMARK  status: ('A' for Active; 'I' for Inactive)
REMARK    1  A    between atoms: C_1  and  C_2
REMARK    2  A    between atoms: C_5  and  N_8
REMARK    3  A    between atoms: N_8  and  C_9
REMARK    4  A    between atoms: N_8  and  C_13
REMARK    5  A    between atoms: C_9  and  C_10
REMARK    6  A    between atoms: C_10  and  C_11
REMARK    7  A    between atoms: C_10  and  O_12
REMARK    8  A    between atoms: C_13  and  C_14
REMARK    9  A    between atoms: C_14  and  C_15
REMARK   10  A    between atoms: C_14  and  O_16
REMARK                            x       y       z     vdW  Elec       q    Type
REMARK                         _______ _______ _______ _____ _____    ______ ____
ROOT
ATOM      1  N   UNL     1      -4.452 -13.953  -8.612  0.00  0.00    +0.000 N 
ENDROOT
BRANCH   1   6
ATOM      2  C   UNL     1      -6.065 -17.471 -12.896  0.00  0.00    +0.000 C 
ATOM      3  C   UNL     1      -5.665 -16.567 -11.770  0.00  0.00    +0.000 A 
ATOM      4  C   UNL     1      -6.164 -15.271 -11.683  0.00  0.00    +0.000 A 
ATOM      5  C   UNL     1      -5.762 -14.418 -10.642  0.00  0.00    +0.000 A 
ATOM      6  C   UNL     1      -4.833 -14.802  -9.658  0.00  0.00    +0.000 A 
ATOM      7  C   UNL     1      -4.352 -16.119  -9.777  0.00  0.00    +0.000 A 
ATOM      8  C   UNL     1      -4.747 -16.984 -10.811  0.00  0.00    +0.000 A 
ENDBRANCH   1   6
BRANCH   1   9
ATOM      9  C   UNL     1      -4.197 -14.506  -7.260  0.00  0.00    +0.000 C 
BRANCH   9  10
ATOM     10  C   UNL     1      -2.689 -14.690  -6.962  0.00  0.00    +0.000 C 
ATOM     11  C   UNL     1      -2.337 -16.166  -6.822  0.00  0.00    +0.000 C 
BRANCH  10  12
ATOM     12  O   UNL     1      -1.885 -14.139  -8.014  0.00  0.00    +0.000 OA
ATOM     13  H   UNL     1      -0.984 -14.017  -7.672  0.00  0.00    +0.000 HD
ENDBRANCH  10  12
ENDBRANCH   9  10
ENDBRANCH   1   9
BRANCH   1  14
ATOM     14  C   UNL     1      -4.774 -12.503  -8.643  0.00  0.00    +0.000 C 
BRANCH  14  15
ATOM     15  C   UNL     1      -5.851 -12.122  -7.598  0.00  0.00    +0.000 C 
ATOM     16  C   UNL     1      -6.130 -10.625  -7.544  0.00  0.00    +0.000 C 
BRANCH  15  17
ATOM     17  O   UNL     1      -7.086 -12.793  -7.845  0.00  0.00    +0.000 OA
ATOM     18  H   UNL     1      -6.858 -13.526  -8.452  0.00  0.00    +0.000 HD
ENDBRANCH  15  17
ENDBRANCH  14  15
ENDBRANCH   1  14
TORSDOF 7
ENDMDL
MODEL 4
REMARK VINA RESULT:    -4.976      2.559      4.933
REMARK INTER + INTRA:          -7.172
REMARK INTER:                  -6.779
REMARK INTRA:                  -0.393
REMARK UNBOUND:                -0.450
REMARK  Name = 
REMARK  10 active torsions:
REMARK  status: ('A' for Active; 'I' for Inactive)
REMARK    1  A    between atoms: C_1  and  C_2
REMARK    2  A    between atoms: C_5  and  N_8
REMARK    3  A    between atoms: N_8  and  C_9
REMARK    4  A    between atoms: N_8  and  C_13
REMARK    5  A    between atoms: C_9  and  C_10
REMARK    6  A    between atoms: C_10  and  C_11
REMARK    7  A    between atoms: C_10  and  O_12
REMARK    8  A    between atoms: C_13  and  C_14
REMARK    9  A    between atoms: C_14  and  C_15
REMARK   10  A    between atoms: C_14  and  O_16
REMARK                            x       y       z     vdW  Elec       q    Type
REMARK                         _______ _______ _______ _____ _____    ______ ____
ROOT
ATOM      1  N   UNL     1      -5.125 -14.051  -9.042  0.00  0.00    +0.000 N 
ENDROOT
BRANCH   1   6
ATOM      2  C   UNL     1      -5.641 -17.069 -13.935  0.00  0.00    +0.000 C 
ATOM      3  C   UNL     1      -5.487 -16.274 -12.675  0.00  0.00    +0.000 A 
ATOM      4  C   UNL     1      -4.731 -16.758 -11.613  0.00  0.00    +0.000 A 
ATOM      5  C   UNL     1      -4.615 -16.022 -10.422  0.00  0.00    +0.000 A 
ATOM      6  C   UNL     1      -5.261 -14.789 -10.224  0.00  0.00    +0.000 A 
ATOM      7  C   UNL     1      -6.015 -14.329 -11.320  0.00  0.00    +0.000 A 
ATOM      8  C   UNL     1      -6.138 -15.054 -12.516  0.00  0.00    +0.000 A 
ENDBRANCH   1   6
BRANCH   1   9
ATOM      9  C   UNL     1      -6.005 -12.885  -8.787  0.00  0.00    +0.000 C 
BRANCH   9  10
ATOM     10  C   UNL     1      -5.644 -12.133  -7.483  0.00  0.00    +0.000 C 
ATOM     11  C   UNL     1      -6.061 -10.669  -7.564  0.00  0.00    +0.000 C 
BRANCH  10  12
ATOM     12  O   UNL     1      -6.301 -12.720  -6.351  0.00  0.00    +0.000 OA
ATOM     13  H   UNL     1      -5.725 -12.607  -5.577  0.00  0.00    +0.000 HD
ENDBRANCH  10  12
ENDBRANCH   9  10
ENDBRANCH   1   9
BRANCH   1  14
ATOM     14  C   UNL     1      -3.850 -14.049  -8.279  0.00  0.00    +0.000 C 
BRANCH  14  15
ATOM     15  C   UNL     1      -3.712 -15.293  -7.369  0.00  0.00    +0.000 C 
ATOM     16  C   UNL     1      -2.270 -15.760  -7.208  0.00  0.00    +0.000 C 
BRANCH  15  17
ATOM     17  O   UNL     1      -4.248 -15.058  -6.068  0.00  0.00    +0.000 OA
ATOM     18  H   UNL     1      -4.261 -14.085  -5.973  0.00  0.00    +0.000 HD
ENDBRANCH  15  17
ENDBRANCH  14  15
ENDBRANCH   1  14
TORSDOF 7
ENDMDL
MODEL 5
REMARK VINA RESULT:    -4.769      2.425      4.089
REMARK INTER + INTRA:          -6.892
REMARK INTER:                  -6.401
REMARK INTRA:                  -0.490
REMARK UNBOUND:                -0.450
REMARK  Name = 
REMARK  10 active torsions:
REMARK  status: ('A' for Active; 'I' for Inactive)
REMARK    1  A    between atoms: C_1  and  C_2
REMARK    2  A    between atoms: C_5  and  N_8
REMARK    3  A    between atoms: N_8  and  C_9
REMARK    4  A    between atoms: N_8  and  C_13
REMARK    5  A    between atoms: C_9  and  C_10
REMARK    6  A    between atoms: C_10  and  C_11
REMARK    7  A    between atoms: C_10  and  O_12
REMARK    8  A    between atoms: C_13  and  C_14
REMARK    9  A    between atoms: C_14  and  C_15
REMARK   10  A    between atoms: C_14  and  O_16
REMARK                            x       y       z     vdW  Elec       q    Type
REMARK                         _______ _______ _______ _____ _____    ______ ____
ROOT
ATOM      1  N   UNL     1      -3.732 -17.030  -9.258  0.00  0.00    +0.000 N 
ENDROOT
BRANCH   1   6
ATOM      2  C   UNL     1      -8.092 -15.886 -12.864  0.00  0.00    +0.000 C 
ATOM      3  C   UNL     1      -6.947 -16.190 -11.948  0.00  0.00    +0.000 A 
ATOM      4  C   UNL     1      -6.799 -17.451 -11.381  0.00  0.00    +0.000 A 
ATOM      5  C   UNL     1      -5.740 -17.721 -10.499  0.00  0.00    +0.000 A 
ATOM      6  C   UNL     1      -4.797 -16.748 -10.123  0.00  0.00    +0.000 A 
ATOM      7  C   UNL     1      -4.975 -15.485 -10.716  0.00  0.00    +0.000 A 
ATOM      8  C   UNL     1      -6.028 -15.203 -11.601  0.00  0.00    +0.000 A 
ENDBRANCH   1   6
BRANCH   1   9
ATOM      9  C   UNL     1      -3.026 -18.331  -9.346  0.00  0.00    +0.000 C 
BRANCH   9  10
ATOM     10  C   UNL     1      -1.696 -18.241 -10.133  0.00  0.00    +0.000 C 
ATOM     11  C   UNL     1      -1.949 -17.868 -11.589  0.00  0.00    +0.000 C 
BRANCH  10  12
ATOM     12  O   UNL     1      -0.828 -17.250  -9.565  0.00  0.00    +0.000 OA
ATOM     13  H   UNL     1      -0.145 -17.709  -9.048  0.00  0.00    +0.000 HD
ENDBRANCH  10  12
ENDBRANCH   9  10
ENDBRANCH   1   9
BRANCH   1  14
ATOM     14  C   UNL     1      -3.596 -16.334  -7.953  0.00  0.00    +0.000 C 
BRANCH  14  15
ATOM     15  C   UNL     1      -2.960 -14.931  -8.102  0.00  0.00    +0.000 C 
ATOM     16  C   UNL     1      -3.555 -13.898  -7.152  0.00  0.00    +0.000 C 
BRANCH  15  17
ATOM     17  O   UNL     1      -1.550 -14.966  -7.889  0.00  0.00    +0.000 OA
ATOM     18  H   UNL     1      -1.257 -14.036  -7.978  0.00  0.00    +0.000 HD
ENDBRANCH  15  17
ENDBRANCH  14  15
ENDBRANCH   1  14
TORSDOF 7
ENDMDL
MODEL 6
REMARK VINA RESULT:    -4.659      2.767      4.493
REMARK INTER + INTRA:          -6.744
REMARK INTER:                  -5.976
REMARK INTRA:                  -0.768
REMARK UNBOUND:                -0.450
REMARK  Name = 
REMARK  10 active torsions:
REMARK  status: ('A' for Active; 'I' for Inactive)
REMARK    1  A    between atoms: C_1  and  C_2
REMARK    2  A    between atoms: C_5  and  N_8
REMARK    3  A    between atoms: N_8  and  C_9
REMARK    4  A    between atoms: N_8  and  C_13
REMARK    5  A    between atoms: C_9  and  C_10
REMARK    6  A    between atoms: C_10  and  C_11
REMARK    7  A    between atoms: C_10  and  O_12
REMARK    8  A    between atoms: C_13  and  C_14
REMARK    9  A    between atoms: C_14  and  C_15
REMARK   10  A    between atoms: C_14  and  O_16
REMARK                            x       y       z     vdW  Elec       q    Type
REMARK                         _______ _______ _______ _____ _____    ______ ____
ROOT
ATOM      1  N   UNL     1      -5.848 -16.428 -11.712  0.00  0.00    +0.000 N 
ENDROOT
BRANCH   1   6
ATOM      2  C   UNL     1      -3.258 -14.059  -7.128  0.00  0.00    +0.000 C 
ATOM      3  C   UNL     1      -3.912 -14.664  -8.332  0.00  0.00    +0.000 A 
ATOM      4  C   UNL     1      -4.885 -13.969  -9.043  0.00  0.00    +0.000 A 
ATOM      5  C   UNL     1      -5.516 -14.553 -10.153  0.00  0.00    +0.000 A 
ATOM      6  C   UNL     1      -5.229 -15.858 -10.592  0.00  0.00    +0.000 A 
ATOM      7  C   UNL     1      -4.239 -16.531  -9.852  0.00  0.00    +0.000 A 
ATOM      8  C   UNL     1      -3.599 -15.958  -8.741  0.00  0.00    +0.000 A 
ENDBRANCH   1   6
BRANCH   1   9
ATOM      9  C   UNL     1      -7.234 -16.944 -11.612  0.00  0.00    +0.000 C 
BRANCH   9  10
ATOM     10  C   UNL     1      -8.193 -16.290 -12.637  0.00  0.00    +0.000 C 
ATOM     11  C   UNL     1      -9.644 -16.637 -12.324  0.00  0.00    +0.000 C 
BRANCH  10  12
ATOM     12  O   UNL     1      -8.065 -14.861 -12.622  0.00  0.00    +0.000 OA
ATOM     13  H   UNL     1      -7.808 -14.591 -11.725  0.00  0.00    +0.000 HD
ENDBRANCH  10  12
ENDBRANCH   9  10
ENDBRANCH   1   9
BRANCH   1  14
ATOM     14  C   UNL     1      -5.048 -16.998 -12.826  0.00  0.00    +0.000 C 
BRANCH  14  15
ATOM     15  C   UNL     1      -4.410 -15.899 -13.710  0.00  0.00    +0.000 C 
ATOM     16  C   UNL     1      -3.982 -16.406 -15.081  0.00  0.00    +0.000 C 
BRANCH  15  17
ATOM     17  O   UNL     1      -5.297 -14.798 -13.903  0.00  0.00    +0.000 OA
ATOM     18  H   UNL     1      -5.628 -14.897 -14.818  0.00  0.00    +0.000 HD
ENDBRANCH  15  17
ENDBRANCH  14  15
ENDBRANCH   1  14
TORSDOF 7
ENDMDL
MODEL 7
REMARK VINA RESULT:    -4.612      1.073      3.479
REMARK INTER + INTRA:          -6.680
REMARK INTER:                  -6.181
REMARK INTRA:                  -0.499
REMARK UNBOUND:                -0.450
REMARK  Name = 
REMARK  10 active torsions:
REMARK  status: ('A' for Active; 'I' for Inactive)
REMARK    1  A    between atoms: C_1  and  C_2
REMARK    2  A    between atoms: C_5  and  N_8
REMARK    3  A    between atoms: N_8  and  C_9
REMARK    4  A    between atoms: N_8  and  C_13
REMARK    5  A    between atoms: C_9  and  C_10
REMARK    6  A    between atoms: C_10  and  C_11
REMARK    7  A    between atoms: C_10  and  O_12
REMARK    8  A    between atoms: C_13  and  C_14
REMARK    9  A    between atoms: C_14  and  C_15
REMARK   10  A    between atoms: C_14  and  O_16
REMARK                            x       y       z     vdW  Elec       q    Type
REMARK                         _______ _______ _______ _____ _____    ______ ____
ROOT
ATOM      1  N   UNL     1      -4.313 -15.883  -9.403  0.00  0.00    +0.000 N 
ENDROOT
BRANCH   1   6
ATOM      2  C   UNL     1      -6.434 -10.772  -7.757  0.00  0.00    +0.000 C 
ATOM      3  C   UNL     1      -5.862 -12.087  -8.191  0.00  0.00    +0.000 A 
ATOM      4  C   UNL     1      -6.040 -12.550  -9.490  0.00  0.00    +0.000 A 
ATOM      5  C   UNL     1      -5.527 -13.798  -9.882  0.00  0.00    +0.000 A 
ATOM      6  C   UNL     1      -4.839 -14.649  -9.000  0.00  0.00    +0.000 A 
ATOM      7  C   UNL     1      -4.676 -14.148  -7.695  0.00  0.00    +0.000 A 
ATOM      8  C   UNL     1      -5.181 -12.902  -7.290  0.00  0.00    +0.000 A 
ENDBRANCH   1   6
BRANCH   1   9
ATOM      9  C   UNL     1      -3.508 -16.693  -8.458  0.00  0.00    +0.000 C 
BRANCH   9  10
ATOM     10  C   UNL     1      -2.075 -16.141  -8.264  0.00  0.00    +0.000 C 
ATOM     11  C   UNL     1      -1.704 -16.091  -6.787  0.00  0.00    +0.000 C 
BRANCH  10  12
ATOM     12  O   UNL     1      -1.111 -16.965  -8.936  0.00  0.00    +0.000 OA
ATOM     13  H   UNL     1      -1.567 -17.443  -9.648  0.00  0.00    +0.000 HD
ENDBRANCH  10  12
ENDBRANCH   9  10
ENDBRANCH   1   9
BRANCH   1  14
ATOM     14  C   UNL     1      -4.086 -16.190 -10.839  0.00  0.00    +0.000 C 
BRANCH  14  15
ATOM     15  C   UNL     1      -3.839 -17.699 -11.082  0.00  0.00    +0.000 C 
ATOM     16  C   UNL     1      -4.757 -18.293 -12.143  0.00  0.00    +0.000 C 
BRANCH  15  17
ATOM     17  O   UNL     1      -2.490 -17.956 -11.470  0.00  0.00    +0.000 OA
ATOM     18  H   UNL     1      -2.516 -18.020 -12.446  0.00  0.00    +0.000 HD
ENDBRANCH  15  17
ENDBRANCH  14  15
ENDBRANCH   1  14
TORSDOF 7
ENDMDL
MODEL 8
REMARK VINA RESULT:    -4.502      2.811      4.961
REMARK INTER + INTRA:          -6.532
REMARK INTER:                  -5.904
REMARK INTRA:                  -0.628
REMARK UNBOUND:                -0.450
REMARK  Name = 
REMARK  10 active torsions:
REMARK  status: ('A' for Active; 'I' for Inactive)
REMARK    1  A    between atoms: C_1  and  C_2
REMARK    2  A    between atoms: C_5  and  N_8
REMARK    3  A    between atoms: N_8  and  C_9
REMARK    4  A    between atoms: N_8  and  C_13
REMARK    5  A    between atoms: C_9  and  C_10
REMARK    6  A    between atoms: C_10  and  C_11
REMARK    7  A    between atoms: C_10  and  O_12
REMARK    8  A    between atoms: C_13  and  C_14
REMARK    9  A    between atoms: C_14  and  C_15
REMARK   10  A    between atoms: C_14  and  O_16
REMARK                            x       y       z     vdW  Elec       q    Type
REMARK                         _______ _______ _______ _____ _____    ______ ____
ROOT
ATOM      1  N   UNL     1      -5.996 -16.688 -11.634  0.00  0.00    +0.000 N 
ENDROOT
BRANCH   1   6
ATOM      2  C   UNL     1      -3.119 -14.039  -7.388  0.00  0.00    +0.000 C 
ATOM      3  C   UNL     1      -3.883 -14.734  -8.473  0.00  0.00    +0.000 A 
ATOM      4  C   UNL     1      -3.601 -16.052  -8.813  0.00  0.00    +0.000 A 
ATOM      5  C   UNL     1      -4.300 -16.689  -9.852  0.00  0.00    +0.000 A 
ATOM      6  C   UNL     1      -5.290 -16.041 -10.613  0.00  0.00    +0.000 A 
ATOM      7  C   UNL     1      -5.550 -14.710 -10.240  0.00  0.00    +0.000 A 
ATOM      8  C   UNL     1      -4.860 -14.062  -9.202  0.00  0.00    +0.000 A 
ENDBRANCH   1   6
BRANCH   1   9
ATOM      9  C   UNL     1      -5.350 -16.931 -12.947  0.00  0.00    +0.000 C 
BRANCH   9  10
ATOM     10  C   UNL     1      -4.373 -15.800 -13.353  0.00  0.00    +0.000 C 
ATOM     11  C   UNL     1      -3.362 -16.296 -14.380  0.00  0.00    +0.000 C 
BRANCH  10  12
ATOM     12  O   UNL     1      -5.080 -14.690 -13.925  0.00  0.00    +0.000 OA
ATOM     13  H   UNL     1      -4.475 -14.227 -14.528  0.00  0.00    +0.000 HD
ENDBRANCH  10  12
ENDBRANCH   9  10
ENDBRANCH   1   9
BRANCH   1  14
ATOM     14  C   UNL     1      -7.481 -16.691 -11.660  0.00  0.00    +0.000 C 
BRANCH  14  15
ATOM     15  C   UNL     1      -8.047 -15.872 -12.845  0.00  0.00    +0.000 C 
ATOM     16  C   UNL     1      -9.538 -16.092 -13.068  0.00  0.00    +0.000 C 
BRANCH  15  17
ATOM     17  O   UNL     1      -7.828 -14.473 -12.671  0.00  0.00    +0.000 OA
ATOM     18  H   UNL     1      -8.119 -14.283 -11.756  0.00  0.00    +0.000 HD
ENDBRANCH  15  17
ENDBRANCH  14  15
ENDBRANCH   1  14
TORSDOF 7
ENDMDL
MODEL 9
REMARK VINA RESULT:    -4.470      6.559      8.016
REMARK INTER + INTRA:          -6.489
REMARK INTER:                  -5.844
REMARK INTRA:                  -0.644
REMARK UNBOUND:                -0.450
REMARK  Name = 
REMARK  10 active torsions:
REMARK  status: ('A' for Active; 'I' for Inactive)
REMARK    1  A    between atoms: C_1  and  C_2
REMARK    2  A    between atoms: C_5  and  N_8
REMARK    3  A    between atoms: N_8  and  C_9
REMARK    4  A    between atoms: N_8  and  C_13
REMARK    5  A    between atoms: C_9  and  C_10
REMARK    6  A    between atoms: C_10  and  C_11
REMARK    7  A    between atoms: C_10  and  O_12
REMARK    8  A    between atoms: C_13  and  C_14
REMARK    9  A    between atoms: C_14  and  C_15
REMARK   10  A    between atoms: C_14  and  O_16
REMARK                            x       y       z     vdW  Elec       q    Type
REMARK                         _______ _______ _______ _____ _____    ______ ____
ROOT
ATOM      1  N   UNL     1     -10.523 -14.253 -13.929  0.00  0.00    +0.000 N 
ENDROOT
BRANCH   1   6
ATOM      2  C   UNL     1     -12.344  -8.875 -12.886  0.00  0.00    +0.000 C 
ATOM      3  C   UNL     1     -11.891 -10.280 -13.144  0.00  0.00    +0.000 A 
ATOM      4  C   UNL     1     -11.008 -10.916 -12.278  0.00  0.00    +0.000 A 
ATOM      5  C   UNL     1     -10.564 -12.222 -12.541  0.00  0.00    +0.000 A 
ATOM      6  C   UNL     1     -10.955 -12.944 -13.683  0.00  0.00    +0.000 A 
ATOM      7  C   UNL     1     -11.849 -12.270 -14.536  0.00  0.00    +0.000 A 
ATOM      8  C   UNL     1     -12.304 -10.965 -14.283  0.00  0.00    +0.000 A 
ENDBRANCH   1   6
BRANCH   1   9
ATOM      9  C   UNL     1      -9.294 -14.493 -14.724  0.00  0.00    +0.000 C 
BRANCH   9  10
ATOM     10  C   UNL     1      -8.195 -15.231 -13.921  0.00  0.00    +0.000 C 
ATOM     11  C   UNL     1      -6.929 -15.395 -14.753  0.00  0.00    +0.000 C 
BRANCH  10  12
ATOM     12  O   UNL     1      -7.854 -14.508 -12.730  0.00  0.00    +0.000 OA
ATOM     13  H   UNL     1      -6.885 -14.492 -12.654  0.00  0.00    +0.000 HD
ENDBRANCH  10  12
ENDBRANCH   9  10
ENDBRANCH   1   9
BRANCH   1  14
ATOM     14  C   UNL     1     -11.469 -15.397 -13.882  0.00  0.00    +0.000 C 
BRANCH  14  15
ATOM     15  C   UNL     1     -11.726 -15.883 -12.436  0.00  0.00    +0.000 C 
ATOM     16  C   UNL     1     -12.143 -17.347 -12.360  0.00  0.00    +0.000 C 
BRANCH  15  17
ATOM     17  O   UNL     1     -10.577 -15.709 -11.609  0.00  0.00    +0.000 OA
ATOM     18  H   UNL     1     -10.455 -16.569 -11.159  0.00  0.00    +0.000 HD
ENDBRANCH  15  17
ENDBRANCH  14  15
ENDBRANCH   1  14
TORSDOF 7
ENDMDL
