MODEL 1
REMARK VINA RESULT:    -5.125      0.000      0.000
REMARK INTER + INTRA:          -7.356
REMARK INTER:                  -6.923
REMARK INTRA:                  -0.433
REMARK UNBOUND:                -0.433
REMARK  Name = 
REMARK  10 active torsions:
REMARK  status: ('A' for Active; 'I' for Inactive)
REMARK    1  A    between atoms: C_1  and  C_2
REMARK    2  A    between atoms: C_5  and  N_8
REMARK    3  A    between atoms: N_8  and  C_9
REMARK    4  A    between atoms: N_8  and  C_13
REMARK    5  A    between atoms: C_9  and  C_10
REMARK    6  A    between atoms: C_10  and  C_11
REMARK    7  A    between atoms: C_10  and  O_12
REMARK    8  A    between atoms: C_13  and  C_14
REMARK    9  A    between atoms: C_14  and  C_15
REMARK   10  A    between atoms: C_14  and  O_16
REMARK                            x       y       z     vdW  Elec       q    Type
REMARK                         _______ _______ _______ _____ _____    ______ ____
ROOT
ATOM      1  N   UNL     1      -4.218 -15.577  -9.515  0.00  0.00    +0.000 N 
ENDROOT
BRANCH   1   6
ATOM      2  C   UNL     1      -6.776 -10.737  -7.683  0.00  0.00    +0.000 C 
ATOM      3  C   UNL     1      -6.133 -12.006  -8.152  0.00  0.00    +0.000 A 
ATOM      4  C   UNL     1      -5.364 -12.779  -7.289  0.00  0.00    +0.000 A 
ATOM      5  C   UNL     1      -4.739 -13.952  -7.742  0.00  0.00    +0.000 A 
ATOM      6  C   UNL     1      -4.828 -14.396  -9.074  0.00  0.00    +0.000 A 
ATOM      7  C   UNL     1      -5.615 -13.591  -9.918  0.00  0.00    +0.000 A 
ATOM      8  C   UNL     1      -6.247 -12.417  -9.477  0.00  0.00    +0.000 A 
ENDBRANCH   1   6
BRANCH   1   9
ATOM      9  C   UNL     1      -4.608 -16.176 -10.814  0.00  0.00    +0.000 C 
BRANCH   9  10
ATOM     10  C   UNL     1      -5.545 -17.398 -10.654  0.00  0.00    +0.000 C 
ATOM     11  C   UNL     1      -6.889 -17.146 -11.328  0.00  0.00    +0.000 C 
BRANCH  10  12
ATOM     12  O   UNL     1      -4.966 -18.571 -11.243  0.00  0.00    +0.000 OA
ATOM     13  H   UNL     1      -5.600 -18.929 -11.887  0.00  0.00    +0.000 HD
ENDBRANCH  10  12
ENDBRANCH   9  10
ENDBRANCH   1   9
BRANCH   1  14
ATOM     14  C   UNL     1      -3.589 -16.522  -8.556  0.00  0.00    +0.000 C 
BRANCH  14  15
ATOM     15  C   UNL     1      -2.125 -16.137  -8.231  0.00  0.00    +0.000 C 
ATOM     16  C   UNL     1      -1.821 -16.142  -6.738  0.00  0.00    +0.000 C 
BRANCH  15  17
ATOM     17  O   UNL     1      -1.196 -17.007  -8.874  0.00  0.00    +0.000 OA
ATOM     18  H   UNL     1      -1.468 -17.909  -8.608  0.00  0.00    +0.000 HD
ENDBRANCH  15  17
ENDBRANCH  14  15
ENDBRANCH   1  14
TORSDOF 7
ENDMDL
MODEL 2
REMARK VINA RESULT:    -5.011      2.277      5.335
REMARK INTER + INTRA:          -7.202
REMARK INTER:                  -6.756
REMARK INTRA:                  -0.445
REMARK UNBOUND:                -0.433
REMARK  Name = 
REMARK  10 active torsions:
REMARK  status: ('A' for Active; 'I' for Inactive)
REMARK    1  A    between atoms: C_1  and  C_2
REMARK    2  A    between atoms: C_5  and  N_8
REMARK    3  A    between atoms: N_8  and  C_9
REMARK    4  A    between atoms: N_8  and  C_13
REMARK    5  A    between atoms: C_9  and  C_10
REMARK    6  A    between atoms: C_10  and  C_11
REMARK    7  A    between atoms: C_10  and  O_12
REMARK    8  A    between atoms: C_13  and  C_14
REMARK    9  A    between atoms: C_14  and  C_15
REMARK   10  A    between atoms: C_14  and  O_16
REMARK                            x       y       z     vdW  Elec       q    Type
REMARK                         _______ _______ _______ _____ _____    ______ ____
ROOT
ATOM      1  N   UNL     1      -4.467 -13.934  -8.638  0.00  0.00    +0.000 N 
ENDROOT
BRANCH   1   6
ATOM      2  C   UNL     1      -6.105 -17.336 -13.005  0.00  0.00    +0.000 C 
ATOM      3  C   UNL     1      -5.699 -16.462 -11.858  0.00  0.00    +0.000 A 
ATOM      4  C   UNL     1      -6.154 -15.151 -11.764  0.00  0.00    +0.000 A 
ATOM      5  C   UNL     1      -5.747 -14.326 -10.703  0.00  0.00    +0.000 A 
ATOM      6  C   UNL     1      -4.854 -14.755  -9.704  0.00  0.00    +0.000 A 
ATOM      7  C   UNL     1      -4.416 -16.086  -9.830  0.00  0.00    +0.000 A 
ATOM      8  C   UNL     1      -4.817 -16.923 -10.885  0.00  0.00    +0.000 A 
ENDBRANCH   1   6
BRANCH   1   9
ATOM      9  C   UNL     1      -4.217 -14.521  -7.300  0.00  0.00    +0.000 C 
BRANCH   9  10
ATOM     10  C   UNL     1      -2.709 -14.684  -6.988  0.00  0.00    +0.000 C 
ATOM     11  C   UNL     1      -2.333 -16.156  -6.867  0.00  0.00    +0.000 C 
BRANCH  10  12
ATOM     12  O   UNL     1      -1.904 -14.104  -8.024  0.00  0.00    +0.000 OA
ATOM     13  H   UNL     1      -2.129 -14.542  -8.862  0.00  0.00    +0.000 HD
ENDBRANCH  10  12
ENDBRANCH   9  10
ENDBRANCH   1   9
BRANCH   1  14
ATOM     14  C   UNL     1      -4.779 -12.481  -8.634  0.00  0.00    +0.000 C 
BRANCH  14  15
ATOM     15  C   UNL     1      -5.863 -12.119  -7.591  0.00  0.00    +0.000 C 
ATOM     16  C   UNL     1      -6.153 -10.624  -7.522  0.00  0.00    +0.000 C 
BRANCH  15  17
ATOM     17  O   UNL     1      -7.092 -12.796  -7.850  0.00  0.00    +0.000 OA
ATOM     18  H   UNL     1      -7.158 -12.835  -8.826  0.00  0.00    +0.000 HD
ENDBRANCH  15  17
ENDBRANCH  14  15
ENDBRANCH   1  14
TORSDOF 7
ENDMDL
MODEL 3
REMARK VINA RESULT:    -4.973      2.570      4.958
REMARK INTER + INTRA:          -7.150
REMARK INTER:                  -6.775
REMARK INTRA:                  -0.375
REMARK UNBOUND:                -0.433
REMARK  Name = 
REMARK  10 active torsions:
REMARK  status: ('A' for Active; 'I' for Inactive)
REMARK    1  A    between atoms: C_1  and  C_2
REMARK    2  A    between atoms: C_5  and  N_8
REMARK    3  A    between atoms: N_8  and  C_9
REMARK    4  A    between atoms: N_8  and  C_13
REMARK    5  A    between atoms: C_9  and  C_10
REMARK    6  A    between atoms: C_10  and  C_11
REMARK    7  A    between atoms: C_10  and  O_12
REMARK    8  A    between atoms: C_13  and  C_14
REMARK    9  A    between atoms: C_14  and  C_15
REMARK   10  A    between atoms: C_14  and  O_16
REMARK                            x       y       z     vdW  Elec       q    Type
REMARK                         _______ _______ _______ _____ _____    ______ ____
ROOT
ATOM      1  N   UNL     1      -5.105 -14.027  -9.045  0.00  0.00    +0.000 N 
ENDROOT
BRANCH   1   6
ATOM      2  C   UNL     1      -5.583 -17.124 -13.894  0.00  0.00    +0.000 C 
ATOM      3  C   UNL     1      -5.439 -16.309 -12.645  0.00  0.00    +0.000 A 
ATOM      4  C   UNL     1      -4.686 -16.773 -11.572  0.00  0.00    +0.000 A 
ATOM      5  C   UNL     1      -4.579 -16.018 -10.393  0.00  0.00    +0.000 A 
ATOM      6  C   UNL     1      -5.231 -14.784 -10.217  0.00  0.00    +0.000 A 
ATOM      7  C   UNL     1      -5.983 -14.345 -11.323  0.00  0.00    +0.000 A 
ATOM      8  C   UNL     1      -6.096 -15.089 -12.509  0.00  0.00    +0.000 A 
ENDBRANCH   1   6
BRANCH   1   9
ATOM      9  C   UNL     1      -5.971 -12.844  -8.827  0.00  0.00    +0.000 C 
BRANCH   9  10
ATOM     10  C   UNL     1      -5.670 -12.118  -7.493  0.00  0.00    +0.000 C 
ATOM     11  C   UNL     1      -6.130 -10.666  -7.547  0.00  0.00    +0.000 C 
BRANCH  10  12
ATOM     12  O   UNL     1      -6.341 -12.756  -6.397  0.00  0.00    +0.000 OA
ATOM     13  H   UNL     1      -7.231 -12.372  -6.324  0.00  0.00    +0.000 HD
ENDBRANCH  10  12
ENDBRANCH   9  10
ENDBRANCH   1   9
BRANCH   1  14
ATOM     14  C   UNL     1      -3.843 -14.031  -8.260  0.00  0.00    +0.000 C 
BRANCH  14  15
ATOM     15  C   UNL     1      -3.726 -15.275  -7.348  0.00  0.00    +0.000 C 
ATOM     16  C   UNL     1      -2.292 -15.762  -7.179  0.00  0.00    +0.000 C 
BRANCH  15  17
ATOM     17  O   UNL     1      -4.264 -15.029  -6.049  0.00  0.00    +0.000 OA
ATOM     18  H   UNL     1      -4.575 -15.902  -5.735  0.00  0.00    +0.000 HD
ENDBRANCH  15  17
ENDBRANCH  14  15
ENDBRANCH   1  14
TORSDOF 7
ENDMDL
MODEL 4
REMARK VINA RESULT:    -4.791      2.423      4.077
REMARK INTER + INTRA:          -6.905
REMARK INTER:                  -6.405
REMARK INTRA:                  -0.500
REMARK UNBOUND:                -0.433
REMARK  Name = 
REMARK  10 active torsions:
REMARK  status: ('A' for Active; 'I' for Inactive)
REMARK    1  A    between atoms: C_1  and  C_2
REMARK    2  A    between atoms: C_5  and  N_8
REMARK    3  A    between atoms: N_8  and  C_9
REMARK    4  A    between atoms: N_8  and  C_13
REMARK    5  A    between atoms: C_9  and  C_10
REMARK    6  A    between atoms: C_10  and  C_11
REMARK    7  A    between atoms: C_10  and  O_12
REMARK    8  A    between atoms: C_13  and  C_14
REMARK    9  A    between atoms: C_14  and  C_15
REMARK   10  A    between atoms: C_14  and  O_16
REMARK                            x       y       z     vdW  Elec       q    Type
REMARK                         _______ _______ _______ _____ _____    ______ ____
ROOT
ATOM      1  N   UNL     1      -3.718 -17.097  -9.223  0.00  0.00    +0.000 N 
ENDROOT
BRANCH   1   6
ATOM      2  C   UNL     1      -8.114 -15.962 -12.790  0.00  0.00    +0.000 C 
ATOM      3  C   UNL     1      -6.959 -16.263 -11.884  0.00  0.00    +0.000 A 
ATOM      4  C   UNL     1      -6.795 -17.528 -11.331  0.00  0.00    +0.000 A 
ATOM      5  C   UNL     1      -5.728 -17.796 -10.459  0.00  0.00    +0.000 A 
ATOM      6  C   UNL     1      -4.791 -16.818 -10.079  0.00  0.00    +0.000 A 
ATOM      7  C   UNL     1      -4.986 -15.550 -10.658  0.00  0.00    +0.000 A 
ATOM      8  C   UNL     1      -6.048 -15.270 -11.534  0.00  0.00    +0.000 A 
ENDBRANCH   1   6
BRANCH   1   9
ATOM      9  C   UNL     1      -2.998 -18.388  -9.331  0.00  0.00    +0.000 C 
BRANCH   9  10
ATOM     10  C   UNL     1      -1.682 -18.275 -10.139  0.00  0.00    +0.000 C 
ATOM     11  C   UNL     1      -1.962 -17.885 -11.586  0.00  0.00    +0.000 C 
BRANCH  10  12
ATOM     12  O   UNL     1      -0.813 -17.285  -9.572  0.00  0.00    +0.000 OA
ATOM     13  H   UNL     1       0.000 -17.258 -10.103  0.00  0.00    +0.000 HD
ENDBRANCH  10  12
ENDBRANCH   9  10
ENDBRANCH   1   9
BRANCH   1  14
ATOM     14  C   UNL     1      -3.584 -16.415  -7.910  0.00  0.00    +0.000 C 
BRANCH  14  15
ATOM     15  C   UNL     1      -2.943 -15.012  -8.043  0.00  0.00    +0.000 C 
ATOM     16  C   UNL     1      -3.526 -13.992  -7.073  0.00  0.00    +0.000 C 
BRANCH  15  17
ATOM     17  O   UNL     1      -1.531 -15.057  -7.842  0.00  0.00    +0.000 OA
ATOM     18  H   UNL     1      -1.396 -15.727  -7.142  0.00  0.00    +0.000 HD
ENDBRANCH  15  17
ENDBRANCH  14  15
ENDBRANCH   1  14
TORSDOF 7
ENDMDL
MODEL 5
REMARK VINA RESULT:    -4.673      1.839      2.087
REMARK INTER + INTRA:          -6.745
REMARK INTER:                  -6.248
REMARK INTRA:                  -0.497
REMARK UNBOUND:                -0.433
REMARK  Name = 
REMARK  10 active torsions:
REMARK  status: ('A' for Active; 'I' for Inactive)
REMARK    1  A    between atoms: C_1  and  C_2
REMARK    2  A    between atoms: C_5  and  N_8
REMARK    3  A    between atoms: N_8  and  C_9
REMARK    4  A    between atoms: N_8  and  C_13
REMARK    5  A    between atoms: C_9  and  C_10
REMARK    6  A    between atoms: C_10  and  C_11
REMARK    7  A    between atoms: C_10  and  O_12
REMARK    8  A    between atoms: C_13  and  C_14
REMARK    9  A    between atoms: C_14  and  C_15
REMARK   10  A    between atoms: C_14  and  O_16
REMARK                            x       y       z     vdW  Elec       q    Type
REMARK                         _______ _______ _______ _____ _____    ______ ____
ROOT
ATOM      1  N   UNL     1      -4.828 -15.781 -10.447  0.00  0.00    +0.000 N 
ENDROOT
BRANCH   1   6
ATOM      2  C   UNL     1      -5.840 -10.718  -7.864  0.00  0.00    +0.000 C 
ATOM      3  C   UNL     1      -5.595 -12.042  -8.520  0.00  0.00    +0.000 A 
ATOM      4  C   UNL     1      -4.643 -12.923  -8.018  0.00  0.00    +0.000 A 
ATOM      5  C   UNL     1      -4.397 -14.151  -8.655  0.00  0.00    +0.000 A 
ATOM      6  C   UNL     1      -5.065 -14.547  -9.828  0.00  0.00    +0.000 A 
ATOM      7  C   UNL     1      -6.022 -13.633 -10.306  0.00  0.00    +0.000 A 
ATOM      8  C   UNL     1      -6.279 -12.403  -9.677  0.00  0.00    +0.000 A 
ENDBRANCH   1   6
BRANCH   1   9
ATOM      9  C   UNL     1      -5.438 -16.080 -11.765  0.00  0.00    +0.000 C 
BRANCH   9  10
ATOM     10  C   UNL     1      -4.541 -15.652 -12.952  0.00  0.00    +0.000 C 
ATOM     11  C   UNL     1      -4.111 -16.860 -13.774  0.00  0.00    +0.000 C 
BRANCH  10  12
ATOM     12  O   UNL     1      -5.236 -14.747 -13.822  0.00  0.00    +0.000 OA
ATOM     13  H   UNL     1      -5.010 -13.840 -13.556  0.00  0.00    +0.000 HD
ENDBRANCH  10  12
ENDBRANCH   9  10
ENDBRANCH   1   9
BRANCH   1  14
ATOM     14  C   UNL     1      -4.433 -16.975  -9.656  0.00  0.00    +0.000 C 
BRANCH  14  15
ATOM     15  C   UNL     1      -2.935 -17.320  -9.828  0.00  0.00    +0.000 C 
ATOM     16  C   UNL     1      -2.104 -17.021  -8.586  0.00  0.00    +0.000 C 
BRANCH  15  17
ATOM     17  O   UNL     1      -2.745 -18.693 -10.167  0.00  0.00    +0.000 OA
ATOM     18  H   UNL     1      -3.649 -19.060 -10.248  0.00  0.00    +0.000 HD
ENDBRANCH  15  17
ENDBRANCH  14  15
ENDBRANCH   1  14
TORSDOF 7
ENDMDL
MODEL 6
REMARK VINA RESULT:    -4.663      2.782      4.491
REMARK INTER + INTRA:          -6.732
REMARK INTER:                  -5.963
REMARK INTRA:                  -0.769
REMARK UNBOUND:                -0.433
REMARK  Name = 
REMARK  10 active torsions:
REMARK  status: ('A' for Active; 'I' for Inactive)
REMARK    1  A    between atoms: C_1  and  C_2
REMARK    2  A    between atoms: C_5  and  N_8
REMARK    3  A    between atoms: N_8  and  C_9
REMARK    4  A    between atoms: N_8  and  C_13
REMARK    5  A    between atoms: C_9  and  C_10
REMARK    6  A    between atoms: C_10  and  C_11
REMARK    7  A    between atoms: C_10  and  O_12
REMARK    8  A    between atoms: C_13  and  C_14
REMARK    9  A    between atoms: C_14  and  C_15
REMARK   10  A    between atoms: C_14  and  O_16
REMARK                            x       y       z     vdW  Elec       q    Type
REMARK                         _______ _______ _______ _____ _____    ______ ____
ROOT
ATOM      1  N   UNL     1      -5.879 -16.415 -11.715  0.00  0.00    +0.000 N 
ENDROOT
BRANCH   1   6
ATOM      2  C   UNL     1      -3.270 -13.983  -7.176  0.00  0.00    +0.000 C 
ATOM      3  C   UNL     1      -3.929 -14.605  -8.368  0.00  0.00    +0.000 A 
ATOM      4  C   UNL     1      -4.926 -13.930  -9.066  0.00  0.00    +0.000 A 
ATOM      5  C   UNL     1      -5.561 -14.530 -10.165  0.00  0.00    +0.000 A 
ATOM      6  C   UNL     1      -5.255 -15.830 -10.606  0.00  0.00    +0.000 A 
ATOM      7  C   UNL     1      -4.241 -16.481  -9.879  0.00  0.00    +0.000 A 
ATOM      8  C   UNL     1      -3.596 -15.892  -8.779  0.00  0.00    +0.000 A 
ENDBRANCH   1   6
BRANCH   1   9
ATOM      9  C   UNL     1      -7.261 -16.939 -11.599  0.00  0.00    +0.000 C 
BRANCH   9  10
ATOM     10  C   UNL     1      -8.230 -16.307 -12.629  0.00  0.00    +0.000 C 
ATOM     11  C   UNL     1      -9.676 -16.667 -12.309  0.00  0.00    +0.000 C 
BRANCH  10  12
ATOM     12  O   UNL     1      -8.118 -14.877 -12.632  0.00  0.00    +0.000 OA
ATOM     13  H   UNL     1      -8.597 -14.536 -11.858  0.00  0.00    +0.000 HD
ENDBRANCH  10  12
ENDBRANCH   9  10
ENDBRANCH   1   9
BRANCH   1  14
ATOM     14  C   UNL     1      -5.084 -16.991 -12.830  0.00  0.00    +0.000 C 
BRANCH  14  15
ATOM     15  C   UNL     1      -4.453 -15.897 -13.724  0.00  0.00    +0.000 C 
ATOM     16  C   UNL     1      -4.021 -16.415 -15.091  0.00  0.00    +0.000 C 
BRANCH  15  17
ATOM     17  O   UNL     1      -5.345 -14.803 -13.928  0.00  0.00    +0.000 OA
ATOM     18  H   UNL     1      -5.484 -14.421 -13.038  0.00  0.00    +0.000 HD
ENDBRANCH  15  17
ENDBRANCH  14  15
ENDBRANCH   1  14
TORSDOF 7
ENDMDL
MODEL 7
REMARK VINA RESULT:    -4.626      0.451      3.479
REMARK INTER + INTRA:          -6.682
REMARK INTER:                  -6.304
REMARK INTRA:                  -0.378
REMARK UNBOUND:                -0.433
REMARK  Name = 
REMARK  10 active torsions:
REMARK  status: ('A' for Active; 'I' for Inactive)
REMARK    1  A    between atoms: C_1  and  C_2
REMARK    2  A    between atoms: C_5  and  N_8
REMARK    3  A    between atoms: N_8  and  C_9
REMARK    4  A    between atoms: N_8  and  C_13
REMARK    5  A    between atoms: C_9  and  C_10
REMARK    6  A    between atoms: C_10  and  C_11
REMARK    7  A    between atoms: C_10  and  O_12
REMARK    8  A    between atoms: C_13  and  C_14
REMARK    9  A    between atoms: C_14  and  C_15
REMARK   10  A    between atoms: C_14  and  O_16
REMARK                            x       y       z     vdW  Elec       q    Type
REMARK                         _______ _______ _______ _____ _____    ______ ____
ROOT
ATOM      1  N   UNL     1      -4.318 -15.934  -9.324  0.00  0.00    +0.000 N 
ENDROOT
BRANCH   1   6
ATOM      2  C   UNL     1      -6.289 -10.732  -7.778  0.00  0.00    +0.000 C 
ATOM      3  C   UNL     1      -5.799 -12.092  -8.172  0.00  0.00    +0.000 A 
ATOM      4  C   UNL     1      -5.091 -12.884  -7.275  0.00  0.00    +0.000 A 
ATOM      5  C   UNL     1      -4.608 -14.146  -7.659  0.00  0.00    +0.000 A 
ATOM      6  C   UNL     1      -4.785 -14.667  -8.953  0.00  0.00    +0.000 A 
ATOM      7  C   UNL     1      -5.508 -13.840  -9.834  0.00  0.00    +0.000 A 
ATOM      8  C   UNL     1      -5.998 -12.578  -9.462  0.00  0.00    +0.000 A 
ENDBRANCH   1   6
BRANCH   1   9
ATOM      9  C   UNL     1      -3.461 -16.711  -8.397  0.00  0.00    +0.000 C 
BRANCH   9  10
ATOM     10  C   UNL     1      -2.018 -16.155  -8.306  0.00  0.00    +0.000 C 
ATOM     11  C   UNL     1      -1.576 -16.022  -6.854  0.00  0.00    +0.000 C 
BRANCH  10  12
ATOM     12  O   UNL     1      -1.090 -17.020  -8.975  0.00  0.00    +0.000 OA
ATOM     13  H   UNL     1      -0.192 -16.757  -8.716  0.00  0.00    +0.000 HD
ENDBRANCH  10  12
ENDBRANCH   9  10
ENDBRANCH   1   9
BRANCH   1  14
ATOM     14  C   UNL     1      -4.207 -16.325 -10.753  0.00  0.00    +0.000 C 
BRANCH  14  15
ATOM     15  C   UNL     1      -5.109 -17.533 -11.100  0.00  0.00    +0.000 C 
ATOM     16  C   UNL     1      -6.585 -17.168 -11.209  0.00  0.00    +0.000 C 
BRANCH  15  17
ATOM     17  O   UNL     1      -4.715 -18.151 -12.324  0.00  0.00    +0.000 OA
ATOM     18  H   UNL     1      -4.191 -17.470 -12.794  0.00  0.00    +0.000 HD
ENDBRANCH  15  17
ENDBRANCH  14  15
ENDBRANCH   1  14
TORSDOF 7
ENDMDL
MODEL 8
REMARK VINA RESULT:    -4.514      6.289      7.967
REMARK INTER + INTRA:          -6.531
REMARK INTER:                  -5.786
REMARK INTRA:                  -0.745
REMARK UNBOUND:                -0.433
REMARK  Name = 
REMARK  10 active torsions:
REMARK  status: ('A' for Active; 'I' for Inactive)
REMARK    1  A    between atoms: C_1  and  C_2
REMARK    2  A    between atoms: C_5  and  N_8
REMARK    3  A    between atoms: N_8  and  C_9
REMARK    4  A    between atoms: N_8  and  C_13
REMARK    5  A    between atoms: C_9  and  C_10
REMARK    6  A    between atoms: C_10  and  C_11
REMARK    7  A    between atoms: C_10  and  O_12
REMARK    8  A    between atoms: C_13  and  C_14
REMARK    9  A    between atoms: C_14  and  C_15
REMARK   10  A    between atoms: C_14  and  O_16
REMARK                            x       y       z     vdW  Elec       q    Type
REMARK                         _______ _______ _______ _____ _____    ______ ____
ROOT
ATOM      1  N   UNL     1     -10.306 -14.399 -13.880  0.00  0.00    +0.000 N 
ENDROOT
BRANCH   1   6
ATOM      2  C   UNL     1     -12.346  -9.134 -12.677  0.00  0.00    +0.000 C 
ATOM      3  C   UNL     1     -11.797 -10.489 -13.002  0.00  0.00    +0.000 A 
ATOM      4  C   UNL     1     -12.210 -11.173 -14.141  0.00  0.00    +0.000 A 
ATOM      5  C   UNL     1     -11.715 -12.457 -14.424  0.00  0.00    +0.000 A 
ATOM      6  C   UNL     1     -10.810 -13.127 -13.581  0.00  0.00    +0.000 A 
ATOM      7  C   UNL     1     -10.413 -12.405 -12.440  0.00  0.00    +0.000 A 
ATOM      8  C   UNL     1     -10.899 -11.120 -12.146  0.00  0.00    +0.000 A 
ENDBRANCH   1   6
BRANCH   1   9
ATOM      9  C   UNL     1      -8.995 -14.538 -14.559  0.00  0.00    +0.000 C 
BRANCH   9  10
ATOM     10  C   UNL     1      -8.018 -15.464 -13.793  0.00  0.00    +0.000 C 
ATOM     11  C   UNL     1      -6.624 -15.410 -14.405  0.00  0.00    +0.000 C 
BRANCH  10  12
ATOM     12  O   UNL     1      -7.914 -15.075 -12.416  0.00  0.00    +0.000 OA
ATOM     13  H   UNL     1      -8.751 -15.298 -11.976  0.00  0.00    +0.000 HD
ENDBRANCH  10  12
ENDBRANCH   9  10
ENDBRANCH   1   9
BRANCH   1  14
ATOM     14  C   UNL     1     -11.208 -15.571 -14.018  0.00  0.00    +0.000 C 
BRANCH  14  15
ATOM     15  C   UNL     1     -11.662 -16.123 -12.645  0.00  0.00    +0.000 C 
ATOM     16  C   UNL     1     -12.089 -17.585 -12.699  0.00  0.00    +0.000 C 
BRANCH  15  17
ATOM     17  O   UNL     1     -10.637 -15.998 -11.661  0.00  0.00    +0.000 OA
ATOM     18  H   UNL     1      -9.799 -16.110 -12.154  0.00  0.00    +0.000 HD
ENDBRANCH  15  17
ENDBRANCH  14  15
ENDBRANCH   1  14
TORSDOF 7
ENDMDL
MODEL 9
REMARK VINA RESULT:    -4.511      2.816      4.959
REMARK INTER + INTRA:          -6.527
REMARK INTER:                  -5.895
REMARK INTRA:                  -0.632
REMARK UNBOUND:                -0.433
REMARK  Name = 
REMARK  10 active torsions:
REMARK  status: ('A' for Active; 'I' for Inactive)
REMARK    1  A    between atoms: C_1  and  C_2
REMARK    2  A    between atoms: C_5  and  N_8
REMARK    3  A    between atoms: N_8  and  C_9
REMARK    4  A    between atoms: N_8  and  C_13
REMARK    5  A    between atoms: C_9  and  C_10
REMARK    6  A    between atoms: C_10  and  C_11
REMARK    7  A    between atoms: C_10  and  O_12
REMARK    8  A    between atoms: C_13  and  C_14
REMARK    9  A    between atoms: C_14  and  C_15
REMARK   10  A    between atoms: C_14  and  O_16
REMARK                            x       y       z     vdW  Elec       q    Type
REMARK                         _______ _______ _______ _____ _____    ______ ____
ROOT
ATOM      1  N   UNL     1      -5.975 -16.701 -11.626  0.00  0.00    +0.000 N 
ENDROOT
BRANCH   1   6
ATOM      2  C   UNL     1      -3.070 -14.112  -7.361  0.00  0.00    +0.000 C 
ATOM      3  C   UNL     1      -3.841 -14.791  -8.452  0.00  0.00    +0.000 A 
ATOM      4  C   UNL     1      -3.569 -16.109  -8.805  0.00  0.00    +0.000 A 
ATOM      5  C   UNL     1      -4.275 -16.731  -9.848  0.00  0.00    +0.000 A 
ATOM      6  C   UNL     1      -5.261 -16.068 -10.600  0.00  0.00    +0.000 A 
ATOM      7  C   UNL     1      -5.511 -14.739 -10.214  0.00  0.00    +0.000 A 
ATOM      8  C   UNL     1      -4.815 -14.105  -9.172  0.00  0.00    +0.000 A 
ENDBRANCH   1   6
BRANCH   1   9
ATOM      9  C   UNL     1      -5.331 -16.940 -12.941  0.00  0.00    +0.000 C 
BRANCH   9  10
ATOM     10  C   UNL     1      -4.351 -15.811 -13.343  0.00  0.00    +0.000 C 
ATOM     11  C   UNL     1      -3.350 -16.303 -14.382  0.00  0.00    +0.000 C 
BRANCH  10  12
ATOM     12  O   UNL     1      -5.054 -14.692 -13.900  0.00  0.00    +0.000 OA
ATOM     13  H   UNL     1      -5.596 -14.296 -13.196  0.00  0.00    +0.000 HD
ENDBRANCH  10  12
ENDBRANCH   9  10
ENDBRANCH   1   9
BRANCH   1  14
ATOM     14  C   UNL     1      -7.460 -16.688 -11.651  0.00  0.00    +0.000 C 
BRANCH  14  15
ATOM     15  C   UNL     1      -8.018 -15.858 -12.832  0.00  0.00    +0.000 C 
ATOM     16  C   UNL     1      -9.506 -16.082 -13.072  0.00  0.00    +0.000 C 
BRANCH  15  17
ATOM     17  O   UNL     1      -7.806 -14.460 -12.641  0.00  0.00    +0.000 OA
ATOM     18  H   UNL     1      -7.785 -14.339 -11.670  0.00  0.00    +0.000 HD
ENDBRANCH  15  17
ENDBRANCH  14  15
ENDBRANCH   1  14
TORSDOF 7
ENDMDL
