MODEL 1
REMARK VINA RESULT:    -4.431      0.000      0.000
REMARK INTER + INTRA:          -4.857
REMARK INTER:                  -4.819
REMARK INTRA:                  -0.037
REMARK UNBOUND:                -0.037
REMARK  Name = 
REMARK  3 active torsions:
REMARK  status: ('A' for Active; 'I' for Inactive)
REMARK    1  A    between atoms: C_1  and  O_2
REMARK    2  A    between atoms: O_2  and  C_3
REMARK    3  A    between atoms: C_8  and  O_9
REMARK                            x       y       z     vdW  Elec       q    Type
REMARK                         _______ _______ _______ _____ _____    ______ ____
ROOT
ATOM      1  C   UNL     1      -3.532 -15.283  -8.311  0.00  0.00    +0.000 A 
ATOM      2  C   UNL     1      -4.300 -15.449  -9.463  0.00  0.00    +0.000 A 
ATOM      3  C   UNL     1      -5.251 -14.483  -9.815  0.00  0.00    +0.000 A 
ATOM      4  C   UNL     1      -5.440 -13.353  -9.018  0.00  0.00    +0.000 A 
ATOM      5  C   UNL     1      -4.677 -13.180  -7.866  0.00  0.00    +0.000 A 
ATOM      6  C   UNL     1      -3.736 -14.142  -7.524  0.00  0.00    +0.000 A 
ENDROOT
BRANCH   1   8
ATOM      7  C   UNL     1      -2.229 -17.232  -8.696  0.00  0.00    +0.000 C 
ATOM      8  O   UNL     1      -2.570 -16.143  -7.847  0.00  0.00    +0.000 OA
ENDBRANCH   1   8
BRANCH   6   9
ATOM      9  O   UNL     1      -2.998 -13.950  -6.387  0.00  0.00    +0.000 OA
ATOM     10  H   UNL     1      -2.070 -13.959  -6.689  0.00  0.00    +0.000 HD
ENDBRANCH   6   9
TORSDOF 2
ENDMDL
MODEL 2
REMARK VINA RESULT:    -4.335      1.943      2.845
REMARK INTER + INTRA:          -4.752
REMARK INTER:                  -4.711
REMARK INTRA:                  -0.041
REMARK UNBOUND:                -0.037
REMARK  Name = 
REMARK  3 active torsions:
REMARK  status: ('A' for Active; 'I' for Inactive)
REMARK    1  A    between atoms: C_1  and  O_2
REMARK    2  A    between atoms: O_2  and  C_3
REMARK    3  A    between atoms: C_8  and  O_9
REMARK                            x       y       z     vdW  Elec       q    Type
REMARK                         _______ _______ _______ _____ _____    ______ ____
ROOT
ATOM      1  C   UNL     1      -5.209 -13.198  -7.900  0.00  0.00    +0.000 A 
ATOM      2  C   UNL     1      -5.268 -13.853  -9.129  0.00  0.00    +0.000 A 
ATOM      3  C   UNL     1      -6.013 -13.303 -10.180  0.00  0.00    +0.000 A 
ATOM      4  C   UNL     1      -6.702 -12.101 -10.006  0.00  0.00    +0.000 A 
ATOM      5  C   UNL     1      -6.648 -11.441  -8.781  0.00  0.00    +0.000 A 
ATOM      6  C   UNL     1      -5.906 -11.994  -7.744  0.00  0.00    +0.000 A 
ENDROOT
BRANCH   1   8
ATOM      7  C   UNL     1      -3.357 -14.400  -7.021  0.00  0.00    +0.000 C 
ATOM      8  O   UNL     1      -4.523 -13.619  -6.789  0.00  0.00    +0.000 OA
ENDBRANCH   1   8
BRANCH   6   9
ATOM      9  O   UNL     1      -5.869 -11.326  -6.549  0.00  0.00    +0.000 OA
ATOM     10  H   UNL     1      -6.509 -10.597  -6.652  0.00  0.00    +0.000 HD
ENDBRANCH   6   9
TORSDOF 2
ENDMDL
MODEL 3
REMARK VINA RESULT:    -4.332      1.958      2.667
REMARK INTER + INTRA:          -4.749
REMARK INTER:                  -4.707
REMARK INTRA:                  -0.042
REMARK UNBOUND:                -0.037
REMARK  Name = 
REMARK  3 active torsions:
REMARK  status: ('A' for Active; 'I' for Inactive)
REMARK    1  A    between atoms: C_1  and  O_2
REMARK    2  A    between atoms: O_2  and  C_3
REMARK    3  A    between atoms: C_8  and  O_9
REMARK                            x       y       z     vdW  Elec       q    Type
REMARK                         _______ _______ _______ _____ _____    ______ ____
ROOT
ATOM      1  C   UNL     1      -5.217 -13.523  -8.761  0.00  0.00    +0.000 A 
ATOM      2  C   UNL     1      -5.946 -12.705  -9.622  0.00  0.00    +0.000 A 
ATOM      3  C   UNL     1      -6.675 -11.624  -9.111  0.00  0.00    +0.000 A 
ATOM      4  C   UNL     1      -6.679 -11.358  -7.740  0.00  0.00    +0.000 A 
ATOM      5  C   UNL     1      -5.954 -12.171  -6.873  0.00  0.00    +0.000 A 
ATOM      6  C   UNL     1      -5.234 -13.241  -7.389  0.00  0.00    +0.000 A 
ENDROOT
BRANCH   1   8
ATOM      7  C   UNL     1      -4.923 -15.362 -10.237  0.00  0.00    +0.000 C 
ATOM      8  O   UNL     1      -4.463 -14.611  -9.120  0.00  0.00    +0.000 OA
ENDBRANCH   1   8
BRANCH   6   9
ATOM      9  O   UNL     1      -4.528 -14.027  -6.517  0.00  0.00    +0.000 OA
ATOM     10  H   UNL     1      -5.105 -14.109  -5.734  0.00  0.00    +0.000 HD
ENDBRANCH   6   9
TORSDOF 2
ENDMDL
MODEL 4
REMARK VINA RESULT:    -4.304      1.323      3.345
REMARK INTER + INTRA:          -4.718
REMARK INTER:                  -4.681
REMARK INTRA:                  -0.037
REMARK UNBOUND:                -0.037
REMARK  Name = 
REMARK  3 active torsions:
REMARK  status: ('A' for Active; 'I' for Inactive)
REMARK    1  A    between atoms: C_1  and  O_2
REMARK    2  A    between atoms: O_2  and  C_3
REMARK    3  A    between atoms: C_8  and  O_9
REMARK                            x       y       z     vdW  Elec       q    Type
REMARK                         _______ _______ _______ _____ _____    ______ ____
ROOT
ATOM      1  C   UNL     1      -5.011 -13.220  -8.036  0.00  0.00    +0.000 A 
ATOM      2  C   UNL     1      -5.684 -13.486  -9.228  0.00  0.00    +0.000 A 
ATOM      3  C   UNL     1      -5.320 -14.593 -10.005  0.00  0.00    +0.000 A 
ATOM      4  C   UNL     1      -4.285 -15.436  -9.595  0.00  0.00    +0.000 A 
ATOM      5  C   UNL     1      -3.608 -15.177  -8.405  0.00  0.00    +0.000 A 
ATOM      6  C   UNL     1      -3.975 -14.076  -7.642  0.00  0.00    +0.000 A 
ENDROOT
BRANCH   1   8
ATOM      7  C   UNL     1      -6.311 -11.292  -7.546  0.00  0.00    +0.000 C 
ATOM      8  O   UNL     1      -5.258 -12.176  -7.181  0.00  0.00    +0.000 OA
ENDBRANCH   1   8
BRANCH   6   9
ATOM      9  O   UNL     1      -3.295 -13.842  -6.476  0.00  0.00    +0.000 OA
ATOM     10  H   UNL     1      -2.718 -14.621  -6.365  0.00  0.00    +0.000 HD
ENDBRANCH   6   9
TORSDOF 2
ENDMDL
MODEL 5
REMARK VINA RESULT:    -4.228      2.625      4.273
REMARK INTER + INTRA:          -4.636
REMARK INTER:                  -4.612
REMARK INTRA:                  -0.024
REMARK UNBOUND:                -0.037
REMARK  Name = 
REMARK  3 active torsions:
REMARK  status: ('A' for Active; 'I' for Inactive)
REMARK    1  A    between atoms: C_1  and  O_2
REMARK    2  A    between atoms: O_2  and  C_3
REMARK    3  A    between atoms: C_8  and  O_9
REMARK                            x       y       z     vdW  Elec       q    Type
REMARK                         _______ _______ _______ _____ _____    ______ ____
ROOT
ATOM      1  C   UNL     1      -4.973 -12.516  -8.699  0.00  0.00    +0.000 A 
ATOM      2  C   UNL     1      -3.925 -13.094  -7.983  0.00  0.00    +0.000 A 
ATOM      3  C   UNL     1      -3.564 -14.425  -8.225  0.00  0.00    +0.000 A 
ATOM      4  C   UNL     1      -4.247 -15.182  -9.179  0.00  0.00    +0.000 A 
ATOM      5  C   UNL     1      -5.294 -14.611  -9.898  0.00  0.00    +0.000 A 
ATOM      6  C   UNL     1      -5.646 -13.290  -9.652  0.00  0.00    +0.000 A 
ENDROOT
BRANCH   1   8
ATOM      7  C   UNL     1      -6.291 -10.974  -7.461  0.00  0.00    +0.000 C 
ATOM      8  O   UNL     1      -5.433 -11.230  -8.566  0.00  0.00    +0.000 OA
ENDBRANCH   1   8
BRANCH   6   9
ATOM      9  O   UNL     1      -6.679 -12.752 -10.371  0.00  0.00    +0.000 OA
ATOM     10  H   UNL     1      -6.267 -12.433 -11.197  0.00  0.00    +0.000 HD
ENDBRANCH   6   9
TORSDOF 2
ENDMDL
MODEL 6
REMARK VINA RESULT:    -4.077      2.516      3.442
REMARK INTER + INTRA:          -4.472
REMARK INTER:                  -4.434
REMARK INTRA:                  -0.038
REMARK UNBOUND:                -0.037
REMARK  Name = 
REMARK  3 active torsions:
REMARK  status: ('A' for Active; 'I' for Inactive)
REMARK    1  A    between atoms: C_1  and  O_2
REMARK    2  A    between atoms: O_2  and  C_3
REMARK    3  A    between atoms: C_8  and  O_9
REMARK                            x       y       z     vdW  Elec       q    Type
REMARK                         _______ _______ _______ _____ _____    ______ ____
ROOT
ATOM      1  C   UNL     1      -5.316 -13.526  -8.719  0.00  0.00    +0.000 A 
ATOM      2  C   UNL     1      -5.190 -12.990  -7.438  0.00  0.00    +0.000 A 
ATOM      3  C   UNL     1      -5.866 -11.810  -7.104  0.00  0.00    +0.000 A 
ATOM      4  C   UNL     1      -6.668 -11.163  -8.046  0.00  0.00    +0.000 A 
ATOM      5  C   UNL     1      -6.799 -11.693  -9.328  0.00  0.00    +0.000 A 
ATOM      6  C   UNL     1      -6.124 -12.863  -9.651  0.00  0.00    +0.000 A 
ENDROOT
BRANCH   1   8
ATOM      7  C   UNL     1      -3.618 -15.162  -8.423  0.00  0.00    +0.000 C 
ATOM      8  O   UNL     1      -4.714 -14.669  -9.183  0.00  0.00    +0.000 OA
ENDBRANCH   1   8
BRANCH   6   9
ATOM      9  O   UNL     1      -6.269 -13.364 -10.917  0.00  0.00    +0.000 OA
ATOM     10  H   UNL     1      -7.147 -13.789 -10.917  0.00  0.00    +0.000 HD
ENDBRANCH   6   9
TORSDOF 2
ENDMDL
MODEL 7
REMARK VINA RESULT:    -3.948     10.166     11.004
REMARK INTER + INTRA:          -4.331
REMARK INTER:                  -4.282
REMARK INTRA:                  -0.049
REMARK UNBOUND:                -0.037
REMARK  Name = 
REMARK  3 active torsions:
REMARK  status: ('A' for Active; 'I' for Inactive)
REMARK    1  A    between atoms: C_1  and  O_2
REMARK    2  A    between atoms: O_2  and  C_3
REMARK    3  A    between atoms: C_8  and  O_9
REMARK                            x       y       z     vdW  Elec       q    Type
REMARK                         _______ _______ _______ _____ _____    ______ ____
ROOT
ATOM      1  C   UNL     1     -11.598 -10.953 -14.609  0.00  0.00    +0.000 A 
ATOM      2  C   UNL     1     -11.383 -11.528 -13.357  0.00  0.00    +0.000 A 
ATOM      3  C   UNL     1     -11.650 -10.795 -12.194  0.00  0.00    +0.000 A 
ATOM      4  C   UNL     1     -12.132  -9.487 -12.278  0.00  0.00    +0.000 A 
ATOM      5  C   UNL     1     -12.350  -8.905 -13.524  0.00  0.00    +0.000 A 
ATOM      6  C   UNL     1     -12.082  -9.640 -14.672  0.00  0.00    +0.000 A 
ENDROOT
BRANCH   1   8
ATOM      7  C   UNL     1     -10.102 -12.143 -16.020  0.00  0.00    +0.000 C 
ATOM      8  O   UNL     1     -11.380 -11.550 -15.824  0.00  0.00    +0.000 OA
ENDBRANCH   1   8
BRANCH   6   9
ATOM      9  O   UNL     1     -12.304  -9.047 -15.886  0.00  0.00    +0.000 OA
ATOM     10  H   UNL     1     -12.513  -9.786 -16.489  0.00  0.00    +0.000 HD
ENDBRANCH   6   9
TORSDOF 2
ENDMDL
MODEL 8
REMARK VINA RESULT:    -1.997      9.179     10.409
REMARK INTER + INTRA:          -2.210
REMARK INTER:                  -2.171
REMARK INTRA:                  -0.039
REMARK UNBOUND:                -0.037
REMARK  Name = 
REMARK  3 active torsions:
REMARK  status: ('A' for Active; 'I' for Inactive)
REMARK    1  A    between atoms: C_1  and  O_2
REMARK    2  A    between atoms: O_2  and  C_3
REMARK    3  A    between atoms: C_8  and  O_9
REMARK                            x       y       z     vdW  Elec       q    Type
REMARK                         _______ _______ _______ _____ _____    ______ ____
ROOT
ATOM      1  C   UNL     1     -11.365 -11.306 -13.331  0.00  0.00    +0.000 A 
ATOM      2  C   UNL     1     -11.430 -10.656 -12.100  0.00  0.00    +0.000 A 
ATOM      3  C   UNL     1     -11.923  -9.347 -12.026  0.00  0.00    +0.000 A 
ATOM      4  C   UNL     1     -12.351  -8.685 -13.178  0.00  0.00    +0.000 A 
ATOM      5  C   UNL     1     -12.289  -9.329 -14.412  0.00  0.00    +0.000 A 
ATOM      6  C   UNL     1     -11.798 -10.627 -14.476  0.00  0.00    +0.000 A 
ENDROOT
BRANCH   1   8
ATOM      7  C   UNL     1     -10.858 -13.442 -12.421  0.00  0.00    +0.000 C 
ATOM      8  O   UNL     1     -10.906 -12.581 -13.552  0.00  0.00    +0.000 OA
ENDBRANCH   1   8
BRANCH   6   9
ATOM      9  O   UNL     1     -11.747 -11.239 -15.700  0.00  0.00    +0.000 OA
ATOM     10  H   UNL     1     -12.476 -10.836 -16.210  0.00  0.00    +0.000 HD
ENDBRANCH   6   9
TORSDOF 2
ENDMDL
