MODEL 1
REMARK VINA RESULT:    -3.379      0.000      0.000
REMARK INTER + INTRA:          -3.722
REMARK INTER:                  -3.675
REMARK INTRA:                  -0.047
REMARK UNBOUND:                -0.047
REMARK  Name = 
REMARK  3 active torsions:
REMARK  status: ('A' for Active; 'I' for Inactive)
REMARK    1  A    between atoms: C_1  and  O_2
REMARK    2  A    between atoms: O_2  and  C_3
REMARK    3  A    between atoms: C_8  and  O_9
REMARK                            x       y       z     vdW  Elec       q    Type
REMARK                         _______ _______ _______ _____ _____    ______ ____
ROOT
ATOM      1  C   UNL     1     -16.825  11.223 -23.295  0.00  0.00    +0.000 A 
ATOM      2  C   UNL     1     -18.007  11.882 -23.630  0.00  0.00    +0.000 A 
ATOM      3  C   UNL     1     -19.195  11.575 -22.955  0.00  0.00    +0.000 A 
ATOM      4  C   UNL     1     -19.207  10.611 -21.945  0.00  0.00    +0.000 A 
ATOM      5  C   UNL     1     -18.030   9.949 -21.604  0.00  0.00    +0.000 A 
ATOM      6  C   UNL     1     -16.856  10.259 -22.279  0.00  0.00    +0.000 A 
ENDROOT
BRANCH   1   8
ATOM      7  C   UNL     1     -15.559  11.464 -25.291  0.00  0.00    +0.000 C 
ATOM      8  O   UNL     1     -15.595  11.420 -23.870  0.00  0.00    +0.000 OA
ENDBRANCH   1   8
BRANCH   6   9
ATOM      9  O   UNL     1     -15.712   9.595 -21.926  0.00  0.00    +0.000 OA
ATOM     10  H   UNL     1     -15.094  10.296 -21.645  0.00  0.00    +0.000 HD
ENDBRANCH   6   9
TORSDOF 2
ENDMDL
MODEL 2
REMARK VINA RESULT:    -3.218      6.532      8.559
REMARK INTER + INTRA:          -3.548
REMARK INTER:                  -3.503
REMARK INTRA:                  -0.044
REMARK UNBOUND:                -0.047
REMARK  Name = 
REMARK  3 active torsions:
REMARK  status: ('A' for Active; 'I' for Inactive)
REMARK    1  A    between atoms: C_1  and  O_2
REMARK    2  A    between atoms: O_2  and  C_3
REMARK    3  A    between atoms: C_8  and  O_9
REMARK                            x       y       z     vdW  Elec       q    Type
REMARK                         _______ _______ _______ _____ _____    ______ ____
ROOT
ATOM      1  C   UNL     1     -10.562  10.220 -26.877  0.00  0.00    +0.000 A 
ATOM      2  C   UNL     1     -10.284  11.034 -27.974  0.00  0.00    +0.000 A 
ATOM      3  C   UNL     1      -9.138  11.839 -27.974  0.00  0.00    +0.000 A 
ATOM      4  C   UNL     1      -8.268  11.834 -26.882  0.00  0.00    +0.000 A 
ATOM      5  C   UNL     1      -8.539  11.023 -25.783  0.00  0.00    +0.000 A 
ATOM      6  C   UNL     1      -9.678  10.228 -25.790  0.00  0.00    +0.000 A 
ENDROOT
BRANCH   1   8
ATOM      7  C   UNL     1     -12.889   9.877 -27.214  0.00  0.00    +0.000 C 
ATOM      8  O   UNL     1     -11.642   9.385 -26.739  0.00  0.00    +0.000 OA
ENDBRANCH   1   8
BRANCH   6   9
ATOM      9  O   UNL     1      -9.923   9.439 -24.698  0.00  0.00    +0.000 OA
ATOM     10  H   UNL     1     -10.660   8.859 -24.971  0.00  0.00    +0.000 HD
ENDBRANCH   6   9
TORSDOF 2
ENDMDL
MODEL 3
REMARK VINA RESULT:    -3.173     15.080     16.076
REMARK INTER + INTRA:          -3.498
REMARK INTER:                  -3.445
REMARK INTRA:                  -0.053
REMARK UNBOUND:                -0.047
REMARK  Name = 
REMARK  3 active torsions:
REMARK  status: ('A' for Active; 'I' for Inactive)
REMARK    1  A    between atoms: C_1  and  O_2
REMARK    2  A    between atoms: O_2  and  C_3
REMARK    3  A    between atoms: C_8  and  O_9
REMARK                            x       y       z     vdW  Elec       q    Type
REMARK                         _______ _______ _______ _____ _____    ______ ____
ROOT
ATOM      1  C   UNL     1     -16.337  14.220  -7.244  0.00  0.00    +0.000 A 
ATOM      2  C   UNL     1     -15.568  13.814  -6.155  0.00  0.00    +0.000 A 
ATOM      3  C   UNL     1     -15.451  12.452  -5.850  0.00  0.00    +0.000 A 
ATOM      4  C   UNL     1     -16.101  11.494  -6.629  0.00  0.00    +0.000 A 
ATOM      5  C   UNL     1     -16.871  11.891  -7.720  0.00  0.00    +0.000 A 
ATOM      6  C   UNL     1     -16.982  13.244  -8.015  0.00  0.00    +0.000 A 
ENDROOT
BRANCH   1   8
ATOM      7  C   UNL     1     -15.403  16.203  -8.162  0.00  0.00    +0.000 C 
ATOM      8  O   UNL     1     -16.540  15.512  -7.658  0.00  0.00    +0.000 OA
ENDBRANCH   1   8
BRANCH   6   9
ATOM      9  O   UNL     1     -17.744  13.611  -9.092  0.00  0.00    +0.000 OA
ATOM     10  H   UNL     1     -17.991  12.769  -9.519  0.00  0.00    +0.000 HD
ENDBRANCH   6   9
TORSDOF 2
ENDMDL
MODEL 4
REMARK VINA RESULT:    -3.151      1.442      3.139
REMARK INTER + INTRA:          -3.474
REMARK INTER:                  -3.426
REMARK INTRA:                  -0.049
REMARK UNBOUND:                -0.047
REMARK  Name = 
REMARK  3 active torsions:
REMARK  status: ('A' for Active; 'I' for Inactive)
REMARK    1  A    between atoms: C_1  and  O_2
REMARK    2  A    between atoms: O_2  and  C_3
REMARK    3  A    between atoms: C_8  and  O_9
REMARK                            x       y       z     vdW  Elec       q    Type
REMARK                         _______ _______ _______ _____ _____    ______ ____
ROOT
ATOM      1  C   UNL     1     -18.109  11.015 -22.524  0.00  0.00    +0.000 A 
ATOM      2  C   UNL     1     -18.788  11.980 -23.267  0.00  0.00    +0.000 A 
ATOM      3  C   UNL     1     -18.112  12.700 -24.261  0.00  0.00    +0.000 A 
ATOM      4  C   UNL     1     -16.761  12.459 -24.515  0.00  0.00    +0.000 A 
ATOM      5  C   UNL     1     -16.076  11.496 -23.777  0.00  0.00    +0.000 A 
ATOM      6  C   UNL     1     -16.754  10.787 -22.793  0.00  0.00    +0.000 A 
ENDROOT
BRANCH   1   8
ATOM      7  C   UNL     1     -19.366  10.923 -20.509  0.00  0.00    +0.000 C 
ATOM      8  O   UNL     1     -18.641  10.240 -21.525  0.00  0.00    +0.000 OA
ENDBRANCH   1   8
BRANCH   6   9
ATOM      9  O   UNL     1     -16.060   9.846 -22.080  0.00  0.00    +0.000 OA
ATOM     10  H   UNL     1     -16.355   8.990 -22.446  0.00  0.00    +0.000 HD
ENDBRANCH   6   9
TORSDOF 2
ENDMDL
MODEL 5
REMARK VINA RESULT:    -3.073     15.383     16.545
REMARK INTER + INTRA:          -3.390
REMARK INTER:                  -3.341
REMARK INTRA:                  -0.049
REMARK UNBOUND:                -0.047
REMARK  Name = 
REMARK  3 active torsions:
REMARK  status: ('A' for Active; 'I' for Inactive)
REMARK    1  A    between atoms: C_1  and  O_2
REMARK    2  A    between atoms: O_2  and  C_3
REMARK    3  A    between atoms: C_8  and  O_9
REMARK                            x       y       z     vdW  Elec       q    Type
REMARK                         _______ _______ _______ _____ _____    ______ ____
ROOT
ATOM      1  C   UNL     1     -16.102  13.073  -6.481  0.00  0.00    +0.000 A 
ATOM      2  C   UNL     1     -15.276  14.164  -6.213  0.00  0.00    +0.000 A 
ATOM      3  C   UNL     1     -15.458  15.367  -6.906  0.00  0.00    +0.000 A 
ATOM      4  C   UNL     1     -16.463  15.484  -7.868  0.00  0.00    +0.000 A 
ATOM      5  C   UNL     1     -17.292  14.398  -8.142  0.00  0.00    +0.000 A 
ATOM      6  C   UNL     1     -17.104  13.209  -7.449  0.00  0.00    +0.000 A 
ENDROOT
BRANCH   1   8
ATOM      7  C   UNL     1     -14.759  11.217  -5.850  0.00  0.00    +0.000 C 
ATOM      8  O   UNL     1     -16.037  11.840  -5.883  0.00  0.00    +0.000 OA
ENDBRANCH   1   8
BRANCH   6   9
ATOM      9  O   UNL     1     -17.932  12.156  -7.736  0.00  0.00    +0.000 OA
ATOM     10  H   UNL     1     -17.333  11.441  -8.023  0.00  0.00    +0.000 HD
ENDBRANCH   6   9
TORSDOF 2
ENDMDL
MODEL 6
REMARK VINA RESULT:    -2.958      9.853     10.761
REMARK INTER + INTRA:          -3.264
REMARK INTER:                  -3.227
REMARK INTRA:                  -0.037
REMARK UNBOUND:                -0.047
REMARK  Name = 
REMARK  3 active torsions:
REMARK  status: ('A' for Active; 'I' for Inactive)
REMARK    1  A    between atoms: C_1  and  O_2
REMARK    2  A    between atoms: O_2  and  C_3
REMARK    3  A    between atoms: C_8  and  O_9
REMARK                            x       y       z     vdW  Elec       q    Type
REMARK                         _______ _______ _______ _____ _____    ______ ____
ROOT
ATOM      1  C   UNL     1     -17.995  15.019 -12.924  0.00  0.00    +0.000 A 
ATOM      2  C   UNL     1     -18.227  16.351 -13.263  0.00  0.00    +0.000 A 
ATOM      3  C   UNL     1     -18.696  16.676 -14.542  0.00  0.00    +0.000 A 
ATOM      4  C   UNL     1     -18.933  15.674 -15.485  0.00  0.00    +0.000 A 
ATOM      5  C   UNL     1     -18.704  14.341 -15.154  0.00  0.00    +0.000 A 
ATOM      6  C   UNL     1     -18.239  14.028 -13.883  0.00  0.00    +0.000 A 
ENDROOT
BRANCH   1   8
ATOM      7  C   UNL     1     -17.353  15.530 -10.694  0.00  0.00    +0.000 C 
ATOM      8  O   UNL     1     -17.539  14.558 -11.716  0.00  0.00    +0.000 OA
ENDBRANCH   1   8
BRANCH   6   9
ATOM      9  O   UNL     1     -18.021  12.710 -13.580  0.00  0.00    +0.000 OA
ATOM     10  H   UNL     1     -18.490  12.214 -14.278  0.00  0.00    +0.000 HD
ENDBRANCH   6   9
TORSDOF 2
ENDMDL
MODEL 7
REMARK VINA RESULT:    -2.957      3.462      4.500
REMARK INTER + INTRA:          -3.263
REMARK INTER:                  -3.219
REMARK INTRA:                  -0.044
REMARK UNBOUND:                -0.047
REMARK  Name = 
REMARK  3 active torsions:
REMARK  status: ('A' for Active; 'I' for Inactive)
REMARK    1  A    between atoms: C_1  and  O_2
REMARK    2  A    between atoms: O_2  and  C_3
REMARK    3  A    between atoms: C_8  and  O_9
REMARK                            x       y       z     vdW  Elec       q    Type
REMARK                         _______ _______ _______ _____ _____    ______ ____
ROOT
ATOM      1  C   UNL     1     -19.505  12.899 -22.801  0.00  0.00    +0.000 A 
ATOM      2  C   UNL     1     -19.248  13.074 -24.160  0.00  0.00    +0.000 A 
ATOM      3  C   UNL     1     -19.413  14.335 -24.746  0.00  0.00    +0.000 A 
ATOM      4  C   UNL     1     -19.836  15.422 -23.979  0.00  0.00    +0.000 A 
ATOM      5  C   UNL     1     -20.094  15.255 -22.621  0.00  0.00    +0.000 A 
ATOM      6  C   UNL     1     -19.928  14.001 -22.048  0.00  0.00    +0.000 A 
ENDROOT
BRANCH   1   8
ATOM      7  C   UNL     1     -18.265  10.910 -22.410  0.00  0.00    +0.000 C 
ATOM      8  O   UNL     1     -19.387  11.726 -22.098  0.00  0.00    +0.000 OA
ENDBRANCH   1   8
BRANCH   6   9
ATOM      9  O   UNL     1     -20.189  13.861 -20.711  0.00  0.00    +0.000 OA
ATOM     10  H   UNL     1     -20.846  13.141 -20.660  0.00  0.00    +0.000 HD
ENDBRANCH   6   9
TORSDOF 2
ENDMDL
MODEL 8
REMARK VINA RESULT:    -2.916      1.260      2.867
REMARK INTER + INTRA:          -3.219
REMARK INTER:                  -3.171
REMARK INTRA:                  -0.047
REMARK UNBOUND:                -0.047
REMARK  Name = 
REMARK  3 active torsions:
REMARK  status: ('A' for Active; 'I' for Inactive)
REMARK    1  A    between atoms: C_1  and  O_2
REMARK    2  A    between atoms: O_2  and  C_3
REMARK    3  A    between atoms: C_8  and  O_9
REMARK                            x       y       z     vdW  Elec       q    Type
REMARK                         _______ _______ _______ _____ _____    ______ ____
ROOT
ATOM      1  C   UNL     1     -17.862  10.822 -22.771  0.00  0.00    +0.000 A 
ATOM      2  C   UNL     1     -19.042  11.406 -22.311  0.00  0.00    +0.000 A 
ATOM      3  C   UNL     1     -19.404  12.687 -22.745  0.00  0.00    +0.000 A 
ATOM      4  C   UNL     1     -18.591  13.388 -23.638  0.00  0.00    +0.000 A 
ATOM      5  C   UNL     1     -17.411  12.811 -24.103  0.00  0.00    +0.000 A 
ATOM      6  C   UNL     1     -17.060  11.540 -23.666  0.00  0.00    +0.000 A 
ENDROOT
BRANCH   1   8
ATOM      7  C   UNL     1     -16.861   9.441 -21.117  0.00  0.00    +0.000 C 
ATOM      8  O   UNL     1     -17.385   9.581 -22.432  0.00  0.00    +0.000 OA
ENDBRANCH   1   8
BRANCH   6   9
ATOM      9  O   UNL     1     -15.896  10.994 -24.137  0.00  0.00    +0.000 OA
ATOM     10  H   UNL     1     -15.995  10.995 -25.108  0.00  0.00    +0.000 HD
ENDBRANCH   6   9
TORSDOF 2
ENDMDL
MODEL 9
REMARK VINA RESULT:    -0.453      2.591      4.166
REMARK INTER + INTRA:          -0.539
REMARK INTER:                  -0.502
REMARK INTRA:                  -0.037
REMARK UNBOUND:                -0.047
REMARK  Name = 
REMARK  3 active torsions:
REMARK  status: ('A' for Active; 'I' for Inactive)
REMARK    1  A    between atoms: C_1  and  O_2
REMARK    2  A    between atoms: O_2  and  C_3
REMARK    3  A    between atoms: C_8  and  O_9
REMARK                            x       y       z     vdW  Elec       q    Type
REMARK                         _______ _______ _______ _____ _____    ______ ____
ROOT
ATOM      1  C   UNL     1     -19.184  12.488 -22.832  0.00  0.00    +0.000 A 
ATOM      2  C   UNL     1     -19.840  13.365 -21.969  0.00  0.00    +0.000 A 
ATOM      3  C   UNL     1     -20.196  14.646 -22.410  0.00  0.00    +0.000 A 
ATOM      4  C   UNL     1     -19.897  15.055 -23.712  0.00  0.00    +0.000 A 
ATOM      5  C   UNL     1     -19.242  14.184 -24.580  0.00  0.00    +0.000 A 
ATOM      6  C   UNL     1     -18.893  12.916 -24.134  0.00  0.00    +0.000 A 
ENDROOT
BRANCH   1   8
ATOM      7  C   UNL     1     -19.090  10.732 -21.234  0.00  0.00    +0.000 C 
ATOM      8  O   UNL     1     -18.778  11.212 -22.537  0.00  0.00    +0.000 OA
ENDBRANCH   1   8
BRANCH   6   9
ATOM      9  O   UNL     1     -18.250  12.078 -25.005  0.00  0.00    +0.000 OA
ATOM     10  H   UNL     1     -17.727  12.670 -25.579  0.00  0.00    +0.000 HD
ENDBRANCH   6   9
TORSDOF 2
ENDMDL
