MODEL 1
REMARK VINA RESULT:    -3.825      0.000      0.000
REMARK INTER + INTRA:          -5.801
REMARK INTER:                  -5.166
REMARK INTRA:                  -0.635
REMARK UNBOUND:                -0.635
REMARK  Name = 
REMARK  10 active torsions:
REMARK  status: ('A' for Active; 'I' for Inactive)
REMARK    1  A    between atoms: C_1  and  C_2
REMARK    2  A    between atoms: C_5  and  N_8
REMARK    3  A    between atoms: N_8  and  C_9
REMARK    4  A    between atoms: N_8  and  C_13
REMARK    5  A    between atoms: C_9  and  C_10
REMARK    6  A    between atoms: C_10  and  C_11
REMARK    7  A    between atoms: C_10  and  O_12
REMARK    8  A    between atoms: C_13  and  C_14
REMARK    9  A    between atoms: C_14  and  C_15
REMARK   10  A    between atoms: C_14  and  O_16
REMARK                            x       y       z     vdW  Elec       q    Type
REMARK                         _______ _______ _______ _____ _____    ______ ____
ROOT
ATOM      1  N   UNL     1     -18.844  11.183 -24.082  0.00  0.00    +0.000 N 
ENDROOT
BRANCH   1   6
ATOM      2  C   UNL     1     -19.049  16.893 -24.907  0.00  0.00    +0.000 C 
ATOM      3  C   UNL     1     -19.000  15.408 -24.717  0.00  0.00    +0.000 A 
ATOM      4  C   UNL     1     -20.149  14.689 -24.407  0.00  0.00    +0.000 A 
ATOM      5  C   UNL     1     -20.091  13.301 -24.200  0.00  0.00    +0.000 A 
ATOM      6  C   UNL     1     -18.891  12.570 -24.270  0.00  0.00    +0.000 A 
ATOM      7  C   UNL     1     -17.750  13.329 -24.588  0.00  0.00    +0.000 A 
ATOM      8  C   UNL     1     -17.794  14.717 -24.799  0.00  0.00    +0.000 A 
ENDBRANCH   1   6
BRANCH   1   9
ATOM      9  C   UNL     1     -19.453  10.276 -25.085  0.00  0.00    +0.000 C 
BRANCH   9  10
ATOM     10  C   UNL     1     -18.424   9.314 -25.727  0.00  0.00    +0.000 C 
ATOM     11  C   UNL     1     -19.006   8.640 -26.964  0.00  0.00    +0.000 C 
BRANCH  10  12
ATOM     12  O   UNL     1     -17.237  10.017 -26.120  0.00  0.00    +0.000 OA
ATOM     13  H   UNL     1     -16.475   9.437 -25.954  0.00  0.00    +0.000 HD
ENDBRANCH  10  12
ENDBRANCH   9  10
ENDBRANCH   1   9
BRANCH   1  14
ATOM     14  C   UNL     1     -18.679  10.595 -22.728  0.00  0.00    +0.000 C 
BRANCH  14  15
ATOM     15  C   UNL     1     -17.195  10.542 -22.292  0.00  0.00    +0.000 C 
ATOM     16  C   UNL     1     -16.893   9.397 -21.332  0.00  0.00    +0.000 C 
BRANCH  15  17
ATOM     17  O   UNL     1     -16.320  10.422 -23.412  0.00  0.00    +0.000 OA
ATOM     18  H   UNL     1     -16.187   9.459 -23.527  0.00  0.00    +0.000 HD
ENDBRANCH  15  17
ENDBRANCH  14  15
ENDBRANCH   1  14
TORSDOF 7
ENDMDL
MODEL 2
REMARK VINA RESULT:    -3.813      2.943      4.486
REMARK INTER + INTRA:          -5.785
REMARK INTER:                  -5.398
REMARK INTRA:                  -0.387
REMARK UNBOUND:                -0.635
REMARK  Name = 
REMARK  10 active torsions:
REMARK  status: ('A' for Active; 'I' for Inactive)
REMARK    1  A    between atoms: C_1  and  C_2
REMARK    2  A    between atoms: C_5  and  N_8
REMARK    3  A    between atoms: N_8  and  C_9
REMARK    4  A    between atoms: N_8  and  C_13
REMARK    5  A    between atoms: C_9  and  C_10
REMARK    6  A    between atoms: C_10  and  C_11
REMARK    7  A    between atoms: C_10  and  O_12
REMARK    8  A    between atoms: C_13  and  C_14
REMARK    9  A    between atoms: C_14  and  C_15
REMARK   10  A    between atoms: C_14  and  O_16
REMARK                            x       y       z     vdW  Elec       q    Type
REMARK                         _______ _______ _______ _____ _____    ______ ____
ROOT
ATOM      1  N   UNL     1     -16.270  10.443 -26.279  0.00  0.00    +0.000 N 
ENDROOT
BRANCH   1   6
ATOM      2  C   UNL     1     -19.605  12.838 -22.220  0.00  0.00    +0.000 C 
ATOM      3  C   UNL     1     -18.756  12.224 -23.291  0.00  0.00    +0.000 A 
ATOM      4  C   UNL     1     -18.904  10.885 -23.640  0.00  0.00    +0.000 A 
ATOM      5  C   UNL     1     -18.085  10.307 -24.623  0.00  0.00    +0.000 A 
ATOM      6  C   UNL     1     -17.070  11.021 -25.285  0.00  0.00    +0.000 A 
ATOM      7  C   UNL     1     -16.951  12.372 -24.909  0.00  0.00    +0.000 A 
ATOM      8  C   UNL     1     -17.765  12.963 -23.929  0.00  0.00    +0.000 A 
ENDBRANCH   1   6
BRANCH   1   9
ATOM      9  C   UNL     1     -14.875  10.906 -26.472  0.00  0.00    +0.000 C 
BRANCH   9  10
ATOM     10  C   UNL     1     -14.060   9.982 -27.410  0.00  0.00    +0.000 C 
ATOM     11  C   UNL     1     -12.821  10.695 -27.937  0.00  0.00    +0.000 C 
BRANCH  10  12
ATOM     12  O   UNL     1     -13.633   8.798 -26.722  0.00  0.00    +0.000 OA
ATOM     13  H   UNL     1     -14.164   8.052 -27.047  0.00  0.00    +0.000 HD
ENDBRANCH  10  12
ENDBRANCH   9  10
ENDBRANCH   1   9
BRANCH   1  14
ATOM     14  C   UNL     1     -16.874   9.770 -27.457  0.00  0.00    +0.000 C 
BRANCH  14  15
ATOM     15  C   UNL     1     -17.302   8.316 -27.144  0.00  0.00    +0.000 C 
ATOM     16  C   UNL     1     -18.682   7.967 -27.687  0.00  0.00    +0.000 C 
BRANCH  15  17
ATOM     17  O   UNL     1     -16.370   7.369 -27.665  0.00  0.00    +0.000 OA
ATOM     18  H   UNL     1     -16.470   7.424 -28.637  0.00  0.00    +0.000 HD
ENDBRANCH  15  17
ENDBRANCH  14  15
ENDBRANCH   1  14
TORSDOF 7
ENDMDL
MODEL 3
REMARK VINA RESULT:    -3.783      2.093      3.489
REMARK INTER + INTRA:          -5.744
REMARK INTER:                  -5.215
REMARK INTRA:                  -0.529
REMARK UNBOUND:                -0.635
REMARK  Name = 
REMARK  10 active torsions:
REMARK  status: ('A' for Active; 'I' for Inactive)
REMARK    1  A    between atoms: C_1  and  C_2
REMARK    2  A    between atoms: C_5  and  N_8
REMARK    3  A    between atoms: N_8  and  C_9
REMARK    4  A    between atoms: N_8  and  C_13
REMARK    5  A    between atoms: C_9  and  C_10
REMARK    6  A    between atoms: C_10  and  C_11
REMARK    7  A    between atoms: C_10  and  O_12
REMARK    8  A    between atoms: C_13  and  C_14
REMARK    9  A    between atoms: C_14  and  C_15
REMARK   10  A    between atoms: C_14  and  O_16
REMARK                            x       y       z     vdW  Elec       q    Type
REMARK                         _______ _______ _______ _____ _____    ______ ____
ROOT
ATOM      1  N   UNL     1     -17.213  12.260 -24.816  0.00  0.00    +0.000 N 
ENDROOT
BRANCH   1   6
ATOM      2  C   UNL     1     -19.208  16.987 -22.169  0.00  0.00    +0.000 C 
ATOM      3  C   UNL     1     -18.680  15.753 -22.834  0.00  0.00    +0.000 A 
ATOM      4  C   UNL     1     -17.447  15.761 -23.478  0.00  0.00    +0.000 A 
ATOM      5  C   UNL     1     -16.970  14.610 -24.126  0.00  0.00    +0.000 A 
ATOM      6  C   UNL     1     -17.703  13.411 -24.184  0.00  0.00    +0.000 A 
ATOM      7  C   UNL     1     -18.944  13.439 -23.522  0.00  0.00    +0.000 A 
ATOM      8  C   UNL     1     -19.431  14.582 -22.868  0.00  0.00    +0.000 A 
ENDBRANCH   1   6
BRANCH   1   9
ATOM      9  C   UNL     1     -17.499  10.921 -24.247  0.00  0.00    +0.000 C 
BRANCH   9  10
ATOM     10  C   UNL     1     -17.013  10.773 -22.785  0.00  0.00    +0.000 C 
ATOM     11  C   UNL     1     -17.905   9.812 -22.008  0.00  0.00    +0.000 C 
BRANCH  10  12
ATOM     12  O   UNL     1     -15.670  10.269 -22.738  0.00  0.00    +0.000 OA
ATOM     13  H   UNL     1     -15.223  10.528 -23.561  0.00  0.00    +0.000 HD
ENDBRANCH  10  12
ENDBRANCH   9  10
ENDBRANCH   1   9
BRANCH   1  14
ATOM     14  C   UNL     1     -16.027  12.319 -25.708  0.00  0.00    +0.000 C 
BRANCH  14  15
ATOM     15  C   UNL     1     -15.523  10.910 -26.104  0.00  0.00    +0.000 C 
ATOM     16  C   UNL     1     -15.376  10.727 -27.610  0.00  0.00    +0.000 C 
BRANCH  15  17
ATOM     17  O   UNL     1     -14.267  10.610 -25.497  0.00  0.00    +0.000 OA
ATOM     18  H   UNL     1     -14.198   9.635 -25.528  0.00  0.00    +0.000 HD
ENDBRANCH  15  17
ENDBRANCH  14  15
ENDBRANCH   1  14
TORSDOF 7
ENDMDL
MODEL 4
REMARK VINA RESULT:    -3.766      2.132      3.331
REMARK INTER + INTRA:          -5.722
REMARK INTER:                  -5.159
REMARK INTRA:                  -0.562
REMARK UNBOUND:                -0.635
REMARK  Name = 
REMARK  10 active torsions:
REMARK  status: ('A' for Active; 'I' for Inactive)
REMARK    1  A    between atoms: C_1  and  C_2
REMARK    2  A    between atoms: C_5  and  N_8
REMARK    3  A    between atoms: N_8  and  C_9
REMARK    4  A    between atoms: N_8  and  C_13
REMARK    5  A    between atoms: C_9  and  C_10
REMARK    6  A    between atoms: C_10  and  C_11
REMARK    7  A    between atoms: C_10  and  O_12
REMARK    8  A    between atoms: C_13  and  C_14
REMARK    9  A    between atoms: C_14  and  C_15
REMARK   10  A    between atoms: C_14  and  O_16
REMARK                            x       y       z     vdW  Elec       q    Type
REMARK                         _______ _______ _______ _____ _____    ______ ____
ROOT
ATOM      1  N   UNL     1     -17.056  12.061 -25.055  0.00  0.00    +0.000 N 
ENDROOT
BRANCH   1   6
ATOM      2  C   UNL     1     -18.759  16.987 -22.572  0.00  0.00    +0.000 C 
ATOM      3  C   UNL     1     -18.323  15.718 -23.239  0.00  0.00    +0.000 A 
ATOM      4  C   UNL     1     -19.208  14.658 -23.405  0.00  0.00    +0.000 A 
ATOM      5  C   UNL     1     -18.786  13.460 -24.004  0.00  0.00    +0.000 A 
ATOM      6  C   UNL     1     -17.465  13.252 -24.442  0.00  0.00    +0.000 A 
ATOM      7  C   UNL     1     -16.599  14.346 -24.260  0.00  0.00    +0.000 A 
ATOM      8  C   UNL     1     -17.009  15.550 -23.665  0.00  0.00    +0.000 A 
ENDBRANCH   1   6
BRANCH   1   9
ATOM      9  C   UNL     1     -17.263  10.763 -24.371  0.00  0.00    +0.000 C 
BRANCH   9  10
ATOM     10  C   UNL     1     -16.883  10.808 -22.871  0.00  0.00    +0.000 C 
ATOM     11  C   UNL     1     -17.954  10.138 -22.017  0.00  0.00    +0.000 C 
BRANCH  10  12
ATOM     12  O   UNL     1     -15.640  10.133 -22.634  0.00  0.00    +0.000 OA
ATOM     13  H   UNL     1     -14.922  10.704 -22.953  0.00  0.00    +0.000 HD
ENDBRANCH  10  12
ENDBRANCH   9  10
ENDBRANCH   1   9
BRANCH   1  14
ATOM     14  C   UNL     1     -15.993  12.058 -26.093  0.00  0.00    +0.000 C 
BRANCH  14  15
ATOM     15  C   UNL     1     -15.257  10.698 -26.171  0.00  0.00    +0.000 C 
ATOM     16  C   UNL     1     -14.758  10.366 -27.572  0.00  0.00    +0.000 C 
BRANCH  15  17
ATOM     17  O   UNL     1     -14.142  10.651 -25.282  0.00  0.00    +0.000 OA
ATOM     18  H   UNL     1     -14.531  10.711 -24.386  0.00  0.00    +0.000 HD
ENDBRANCH  15  17
ENDBRANCH  14  15
ENDBRANCH   1  14
TORSDOF 7
ENDMDL
MODEL 5
REMARK VINA RESULT:    -3.750      1.987      2.479
REMARK INTER + INTRA:          -5.700
REMARK INTER:                  -5.131
REMARK INTRA:                  -0.569
REMARK UNBOUND:                -0.635
REMARK  Name = 
REMARK  10 active torsions:
REMARK  status: ('A' for Active; 'I' for Inactive)
REMARK    1  A    between atoms: C_1  and  C_2
REMARK    2  A    between atoms: C_5  and  N_8
REMARK    3  A    between atoms: N_8  and  C_9
REMARK    4  A    between atoms: N_8  and  C_13
REMARK    5  A    between atoms: C_9  and  C_10
REMARK    6  A    between atoms: C_10  and  C_11
REMARK    7  A    between atoms: C_10  and  O_12
REMARK    8  A    between atoms: C_13  and  C_14
REMARK    9  A    between atoms: C_14  and  C_15
REMARK   10  A    between atoms: C_14  and  O_16
REMARK                            x       y       z     vdW  Elec       q    Type
REMARK                         _______ _______ _______ _____ _____    ______ ____
ROOT
ATOM      1  N   UNL     1     -16.763  12.066 -23.992  0.00  0.00    +0.000 N 
ENDROOT
BRANCH   1   6
ATOM      2  C   UNL     1     -19.413  16.987 -25.438  0.00  0.00    +0.000 C 
ATOM      3  C   UNL     1     -18.724  15.704 -25.087  0.00  0.00    +0.000 A 
ATOM      4  C   UNL     1     -19.454  14.550 -24.820  0.00  0.00    +0.000 A 
ATOM      5  C   UNL     1     -18.804  13.358 -24.462  0.00  0.00    +0.000 A 
ATOM      6  C   UNL     1     -17.406  13.263 -24.330  0.00  0.00    +0.000 A 
ATOM      7  C   UNL     1     -16.700  14.447 -24.609  0.00  0.00    +0.000 A 
ATOM      8  C   UNL     1     -17.338  15.646 -24.970  0.00  0.00    +0.000 A 
ENDBRANCH   1   6
BRANCH   1   9
ATOM      9  C   UNL     1     -15.339  11.861 -24.347  0.00  0.00    +0.000 C 
BRANCH   9  10
ATOM     10  C   UNL     1     -15.157  11.084 -25.674  0.00  0.00    +0.000 C 
ATOM     11  C   UNL     1     -15.046  12.041 -26.855  0.00  0.00    +0.000 C 
BRANCH  10  12
ATOM     12  O   UNL     1     -13.970  10.280 -25.641  0.00  0.00    +0.000 OA
ATOM     13  H   UNL     1     -14.213   9.372 -25.889  0.00  0.00    +0.000 HD
ENDBRANCH  10  12
ENDBRANCH   9  10
ENDBRANCH   1   9
BRANCH   1  14
ATOM     14  C   UNL     1     -17.535  10.817 -23.760  0.00  0.00    +0.000 C 
BRANCH  14  15
ATOM     15  C   UNL     1     -17.540  10.402 -22.269  0.00  0.00    +0.000 C 
ATOM     16  C   UNL     1     -18.926  10.454 -21.637  0.00  0.00    +0.000 C 
BRANCH  15  17
ATOM     17  O   UNL     1     -17.020   9.086 -22.086  0.00  0.00    +0.000 OA
ATOM     18  H   UNL     1     -16.574   9.110 -21.216  0.00  0.00    +0.000 HD
ENDBRANCH  15  17
ENDBRANCH  14  15
ENDBRANCH   1  14
TORSDOF 7
ENDMDL
MODEL 6
REMARK VINA RESULT:    -3.694      3.049      4.355
REMARK INTER + INTRA:          -5.624
REMARK INTER:                  -5.215
REMARK INTRA:                  -0.409
REMARK UNBOUND:                -0.635
REMARK  Name = 
REMARK  10 active torsions:
REMARK  status: ('A' for Active; 'I' for Inactive)
REMARK    1  A    between atoms: C_1  and  C_2
REMARK    2  A    between atoms: C_5  and  N_8
REMARK    3  A    between atoms: N_8  and  C_9
REMARK    4  A    between atoms: N_8  and  C_13
REMARK    5  A    between atoms: C_9  and  C_10
REMARK    6  A    between atoms: C_10  and  C_11
REMARK    7  A    between atoms: C_10  and  O_12
REMARK    8  A    between atoms: C_13  and  C_14
REMARK    9  A    between atoms: C_14  and  C_15
REMARK   10  A    between atoms: C_14  and  O_16
REMARK                            x       y       z     vdW  Elec       q    Type
REMARK                         _______ _______ _______ _____ _____    ______ ____
ROOT
ATOM      1  N   UNL     1     -16.640  10.744 -26.201  0.00  0.00    +0.000 N 
ENDROOT
BRANCH   1   6
ATOM      2  C   UNL     1     -19.337  10.631 -21.098  0.00  0.00    +0.000 C 
ATOM      3  C   UNL     1     -18.635  10.685 -22.421  0.00  0.00    +0.000 A 
ATOM      4  C   UNL     1     -19.354  10.793 -23.607  0.00  0.00    +0.000 A 
ATOM      5  C   UNL     1     -18.692  10.813 -24.845  0.00  0.00    +0.000 A 
ATOM      6  C   UNL     1     -17.295  10.704 -24.964  0.00  0.00    +0.000 A 
ATOM      7  C   UNL     1     -16.601  10.599 -23.744  0.00  0.00    +0.000 A 
ATOM      8  C   UNL     1     -17.250  10.580 -22.499  0.00  0.00    +0.000 A 
ENDBRANCH   1   6
BRANCH   1   9
ATOM      9  C   UNL     1     -17.053   9.828 -27.291  0.00  0.00    +0.000 C 
BRANCH   9  10
ATOM     10  C   UNL     1     -17.377   8.401 -26.785  0.00  0.00    +0.000 C 
ATOM     11  C   UNL     1     -18.789   7.988 -27.184  0.00  0.00    +0.000 C 
BRANCH  10  12
ATOM     12  O   UNL     1     -16.463   7.441 -27.332  0.00  0.00    +0.000 OA
ATOM     13  H   UNL     1     -15.569   7.821 -27.297  0.00  0.00    +0.000 HD
ENDBRANCH  10  12
ENDBRANCH   9  10
ENDBRANCH   1   9
BRANCH   1  14
ATOM     14  C   UNL     1     -15.258  11.276 -26.323  0.00  0.00    +0.000 C 
BRANCH  14  15
ATOM     15  C   UNL     1     -14.250  10.188 -26.764  0.00  0.00    +0.000 C 
ATOM     16  C   UNL     1     -13.387  10.614 -27.946  0.00  0.00    +0.000 C 
BRANCH  15  17
ATOM     17  O   UNL     1     -13.382   9.810 -25.696  0.00  0.00    +0.000 OA
ATOM     18  H   UNL     1     -13.346   8.833 -25.735  0.00  0.00    +0.000 HD
ENDBRANCH  15  17
ENDBRANCH  14  15
ENDBRANCH   1  14
TORSDOF 7
ENDMDL
MODEL 7
REMARK VINA RESULT:    -3.558      3.459      6.101
REMARK INTER + INTRA:          -5.440
REMARK INTER:                  -4.856
REMARK INTRA:                  -0.584
REMARK UNBOUND:                -0.635
REMARK  Name = 
REMARK  10 active torsions:
REMARK  status: ('A' for Active; 'I' for Inactive)
REMARK    1  A    between atoms: C_1  and  C_2
REMARK    2  A    between atoms: C_5  and  N_8
REMARK    3  A    between atoms: N_8  and  C_9
REMARK    4  A    between atoms: N_8  and  C_13
REMARK    5  A    between atoms: C_9  and  C_10
REMARK    6  A    between atoms: C_10  and  C_11
REMARK    7  A    between atoms: C_10  and  O_12
REMARK    8  A    between atoms: C_13  and  C_14
REMARK    9  A    between atoms: C_14  and  C_15
REMARK   10  A    between atoms: C_14  and  O_16
REMARK                            x       y       z     vdW  Elec       q    Type
REMARK                         _______ _______ _______ _____ _____    ______ ____
ROOT
ATOM      1  N   UNL     1     -15.211  10.820 -27.191  0.00  0.00    +0.000 N 
ENDROOT
BRANCH   1   6
ATOM      2  C   UNL     1     -19.735   7.252 -26.840  0.00  0.00    +0.000 C 
ATOM      3  C   UNL     1     -18.549   8.163 -26.915  0.00  0.00    +0.000 A 
ATOM      4  C   UNL     1     -18.419   9.241 -26.046  0.00  0.00    +0.000 A 
ATOM      5  C   UNL     1     -17.320  10.109 -26.141  0.00  0.00    +0.000 A 
ATOM      6  C   UNL     1     -16.315   9.962 -27.114  0.00  0.00    +0.000 A 
ATOM      7  C   UNL     1     -16.477   8.860 -27.974  0.00  0.00    +0.000 A 
ATOM      8  C   UNL     1     -17.570   7.983 -27.889  0.00  0.00    +0.000 A 
ENDBRANCH   1   6
BRANCH   1   9
ATOM      9  C   UNL     1     -15.414  12.287 -27.268  0.00  0.00    +0.000 C 
BRANCH   9  10
ATOM     10  C   UNL     1     -15.163  12.999 -25.916  0.00  0.00    +0.000 C 
ATOM     11  C   UNL     1     -16.348  13.879 -25.536  0.00  0.00    +0.000 C 
BRANCH  10  12
ATOM     12  O   UNL     1     -14.960  12.048 -24.863  0.00  0.00    +0.000 OA
ATOM     13  H   UNL     1     -15.758  12.036 -24.309  0.00  0.00    +0.000 HD
ENDBRANCH  10  12
ENDBRANCH   9  10
ENDBRANCH   1   9
BRANCH   1  14
ATOM     14  C   UNL     1     -13.900  10.343 -27.702  0.00  0.00    +0.000 C 
BRANCH  14  15
ATOM     15  C   UNL     1     -13.152   9.469 -26.666  0.00  0.00    +0.000 C 
ATOM     16  C   UNL     1     -11.639   9.493 -26.843  0.00  0.00    +0.000 C 
BRANCH  15  17
ATOM     17  O   UNL     1     -13.448   9.867 -25.329  0.00  0.00    +0.000 OA
ATOM     18  H   UNL     1     -14.409   9.716 -25.227  0.00  0.00    +0.000 HD
ENDBRANCH  15  17
ENDBRANCH  14  15
ENDBRANCH   1  14
TORSDOF 7
ENDMDL
MODEL 8
REMARK VINA RESULT:    -3.485      1.207      3.118
REMARK INTER + INTRA:          -5.342
REMARK INTER:                  -4.706
REMARK INTRA:                  -0.636
REMARK UNBOUND:                -0.635
REMARK  Name = 
REMARK  10 active torsions:
REMARK  status: ('A' for Active; 'I' for Inactive)
REMARK    1  A    between atoms: C_1  and  C_2
REMARK    2  A    between atoms: C_5  and  N_8
REMARK    3  A    between atoms: N_8  and  C_9
REMARK    4  A    between atoms: N_8  and  C_13
REMARK    5  A    between atoms: C_9  and  C_10
REMARK    6  A    between atoms: C_10  and  C_11
REMARK    7  A    between atoms: C_10  and  O_12
REMARK    8  A    between atoms: C_13  and  C_14
REMARK    9  A    between atoms: C_14  and  C_15
REMARK   10  A    between atoms: C_14  and  O_16
REMARK                            x       y       z     vdW  Elec       q    Type
REMARK                         _______ _______ _______ _____ _____    ______ ____
ROOT
ATOM      1  N   UNL     1     -19.070  10.869 -23.796  0.00  0.00    +0.000 N 
ENDROOT
BRANCH   1   6
ATOM      2  C   UNL     1     -19.051  16.477 -22.427  0.00  0.00    +0.000 C 
ATOM      3  C   UNL     1     -19.076  15.026 -22.798  0.00  0.00    +0.000 A 
ATOM      4  C   UNL     1     -19.814  14.111 -22.054  0.00  0.00    +0.000 A 
ATOM      5  C   UNL     1     -19.809  12.747 -22.388  0.00  0.00    +0.000 A 
ATOM      6  C   UNL     1     -19.055  12.227 -23.456  0.00  0.00    +0.000 A 
ATOM      7  C   UNL     1     -18.323  13.181 -24.187  0.00  0.00    +0.000 A 
ATOM      8  C   UNL     1     -18.321  14.548 -23.865  0.00  0.00    +0.000 A 
ENDBRANCH   1   6
BRANCH   1   9
ATOM      9  C   UNL     1     -18.391   9.878 -22.927  0.00  0.00    +0.000 C 
BRANCH   9  10
ATOM     10  C   UNL     1     -17.121  10.446 -22.248  0.00  0.00    +0.000 C 
ATOM     11  C   UNL     1     -16.607   9.497 -21.171  0.00  0.00    +0.000 C 
BRANCH  10  12
ATOM     12  O   UNL     1     -16.070  10.643 -23.204  0.00  0.00    +0.000 OA
ATOM     13  H   UNL     1     -15.237  10.345 -22.803  0.00  0.00    +0.000 HD
ENDBRANCH  10  12
ENDBRANCH   9  10
ENDBRANCH   1   9
BRANCH   1  14
ATOM     14  C   UNL     1     -19.279  10.429 -25.199  0.00  0.00    +0.000 C 
BRANCH  14  15
ATOM     15  C   UNL     1     -18.149   9.492 -25.692  0.00  0.00    +0.000 C 
ATOM     16  C   UNL     1     -18.579   8.589 -26.842  0.00  0.00    +0.000 C 
BRANCH  15  17
ATOM     17  O   UNL     1     -17.001  10.227 -26.113  0.00  0.00    +0.000 OA
ATOM     18  H   UNL     1     -17.187  11.154 -25.859  0.00  0.00    +0.000 HD
ENDBRANCH  15  17
ENDBRANCH  14  15
ENDBRANCH   1  14
TORSDOF 7
ENDMDL
MODEL 9
REMARK VINA RESULT:    -3.480     13.406     15.140
REMARK INTER + INTRA:          -5.335
REMARK INTER:                  -5.003
REMARK INTRA:                  -0.332
REMARK UNBOUND:                -0.635
REMARK  Name = 
REMARK  10 active torsions:
REMARK  status: ('A' for Active; 'I' for Inactive)
REMARK    1  A    between atoms: C_1  and  C_2
REMARK    2  A    between atoms: C_5  and  N_8
REMARK    3  A    between atoms: N_8  and  C_9
REMARK    4  A    between atoms: N_8  and  C_13
REMARK    5  A    between atoms: C_9  and  C_10
REMARK    6  A    between atoms: C_10  and  C_11
REMARK    7  A    between atoms: C_10  and  O_12
REMARK    8  A    between atoms: C_13  and  C_14
REMARK    9  A    between atoms: C_14  and  C_15
REMARK   10  A    between atoms: C_14  and  O_16
REMARK                            x       y       z     vdW  Elec       q    Type
REMARK                         _______ _______ _______ _____ _____    ______ ____
ROOT
ATOM      1  N   UNL     1     -17.496  15.684  -9.238  0.00  0.00    +0.000 N 
ENDROOT
BRANCH   1   6
ATOM      2  C   UNL     1     -19.203  15.749 -14.753  0.00  0.00    +0.000 C 
ATOM      3  C   UNL     1     -18.740  15.745 -13.328  0.00  0.00    +0.000 A 
ATOM      4  C   UNL     1     -17.934  14.722 -12.841  0.00  0.00    +0.000 A 
ATOM      5  C   UNL     1     -17.528  14.708 -11.497  0.00  0.00    +0.000 A 
ATOM      6  C   UNL     1     -17.920  15.693 -10.572  0.00  0.00    +0.000 A 
ATOM      7  C   UNL     1     -18.733  16.713 -11.100  0.00  0.00    +0.000 A 
ATOM      8  C   UNL     1     -19.145  16.740 -12.443  0.00  0.00    +0.000 A 
ENDBRANCH   1   6
BRANCH   1   9
ATOM      9  C   UNL     1     -18.100  14.735  -8.272  0.00  0.00    +0.000 C 
BRANCH   9  10
ATOM     10  C   UNL     1     -17.123  13.616  -7.838  0.00  0.00    +0.000 C 
ATOM     11  C   UNL     1     -17.295  13.284  -6.360  0.00  0.00    +0.000 C 
BRANCH  10  12
ATOM     12  O   UNL     1     -17.346  12.416  -8.591  0.00  0.00    +0.000 OA
ATOM     13  H   UNL     1     -18.036  11.901  -8.140  0.00  0.00    +0.000 HD
ENDBRANCH  10  12
ENDBRANCH   9  10
ENDBRANCH   1   9
BRANCH   1  14
ATOM     14  C   UNL     1     -16.859  16.878  -8.625  0.00  0.00    +0.000 C 
BRANCH  14  15
ATOM     15  C   UNL     1     -15.319  16.863  -8.781  0.00  0.00    +0.000 C 
ATOM     16  C   UNL     1     -14.603  16.223  -7.598  0.00  0.00    +0.000 C 
BRANCH  15  17
ATOM     17  O   UNL     1     -14.915  16.178  -9.965  0.00  0.00    +0.000 OA
ATOM     18  H   UNL     1     -15.300  16.696 -10.701  0.00  0.00    +0.000 HD
ENDBRANCH  15  17
ENDBRANCH  14  15
ENDBRANCH   1  14
TORSDOF 7
ENDMDL
