MODEL 1
REMARK VINA RESULT:    -4.121      0.000      0.000
REMARK INTER + INTRA:          -6.122
REMARK INTER:                  -5.566
REMARK INTRA:                  -0.556
REMARK UNBOUND:                -0.556
REMARK  Name = 
REMARK  10 active torsions:
REMARK  status: ('A' for Active; 'I' for Inactive)
REMARK    1  A    between atoms: C_1  and  C_2
REMARK    2  A    between atoms: C_5  and  N_8
REMARK    3  A    between atoms: N_8  and  C_9
REMARK    4  A    between atoms: N_8  and  C_13
REMARK    5  A    between atoms: C_9  and  C_10
REMARK    6  A    between atoms: C_10  and  C_11
REMARK    7  A    between atoms: C_10  and  O_12
REMARK    8  A    between atoms: C_13  and  C_14
REMARK    9  A    between atoms: C_14  and  C_15
REMARK   10  A    between atoms: C_14  and  O_16
REMARK                            x       y       z     vdW  Elec       q    Type
REMARK                         _______ _______ _______ _____ _____    ______ ____
ROOT
ATOM      1  N   UNL     1     -16.949  12.105 -24.179  0.00  0.00    +0.000 N 
ENDROOT
BRANCH   1   6
ATOM      2  C   UNL     1     -20.090  16.576 -26.040  0.00  0.00    +0.000 C 
ATOM      3  C   UNL     1     -19.268  15.429 -25.538  0.00  0.00    +0.000 A 
ATOM      4  C   UNL     1     -17.948  15.265 -25.944  0.00  0.00    +0.000 A 
ATOM      5  C   UNL     1     -17.191  14.171 -25.493  0.00  0.00    +0.000 A 
ATOM      6  C   UNL     1     -17.715  13.182 -24.641  0.00  0.00    +0.000 A 
ATOM      7  C   UNL     1     -19.052  13.382 -24.249  0.00  0.00    +0.000 A 
ATOM      8  C   UNL     1     -19.819  14.472 -24.690  0.00  0.00    +0.000 A 
ENDBRANCH   1   6
BRANCH   1   9
ATOM      9  C   UNL     1     -15.494  12.052 -24.463  0.00  0.00    +0.000 C 
BRANCH   9  10
ATOM     10  C   UNL     1     -15.138  11.049 -25.587  0.00  0.00    +0.000 C 
ATOM     11  C   UNL     1     -14.949  11.766 -26.918  0.00  0.00    +0.000 C 
BRANCH  10  12
ATOM     12  O   UNL     1     -13.925  10.346 -25.285  0.00  0.00    +0.000 OA
ATOM     13  H   UNL     1     -13.947   9.493 -25.750  0.00  0.00    +0.000 HD
ENDBRANCH  10  12
ENDBRANCH   9  10
ENDBRANCH   1   9
BRANCH   1  14
ATOM     14  C   UNL     1     -17.574  10.792 -23.873  0.00  0.00    +0.000 C 
BRANCH  14  15
ATOM     15  C   UNL     1     -17.512  10.454 -22.364  0.00  0.00    +0.000 C 
ATOM     16  C   UNL     1     -18.876  10.494 -21.685  0.00  0.00    +0.000 C 
BRANCH  15  17
ATOM     17  O   UNL     1     -16.942   9.166 -22.136  0.00  0.00    +0.000 OA
ATOM     18  H   UNL     1     -16.611   9.195 -21.215  0.00  0.00    +0.000 HD
ENDBRANCH  15  17
ENDBRANCH  14  15
ENDBRANCH   1  14
TORSDOF 7
ENDMDL
MODEL 2
REMARK VINA RESULT:    -3.908      3.455      6.344
REMARK INTER + INTRA:          -5.835
REMARK INTER:                  -5.428
REMARK INTRA:                  -0.407
REMARK UNBOUND:                -0.556
REMARK  Name = 
REMARK  10 active torsions:
REMARK  status: ('A' for Active; 'I' for Inactive)
REMARK    1  A    between atoms: C_1  and  C_2
REMARK    2  A    between atoms: C_5  and  N_8
REMARK    3  A    between atoms: N_8  and  C_9
REMARK    4  A    between atoms: N_8  and  C_13
REMARK    5  A    between atoms: C_9  and  C_10
REMARK    6  A    between atoms: C_10  and  C_11
REMARK    7  A    between atoms: C_10  and  O_12
REMARK    8  A    between atoms: C_13  and  C_14
REMARK    9  A    between atoms: C_14  and  C_15
REMARK   10  A    between atoms: C_14  and  O_16
REMARK                            x       y       z     vdW  Elec       q    Type
REMARK                         _______ _______ _______ _____ _____    ______ ____
ROOT
ATOM      1  N   UNL     1     -15.560  10.377 -26.760  0.00  0.00    +0.000 N 
ENDROOT
BRANCH   1   6
ATOM      2  C   UNL     1      -9.861  10.256 -27.675  0.00  0.00    +0.000 C 
ATOM      3  C   UNL     1     -11.336  10.302 -27.417  0.00  0.00    +0.000 A 
ATOM      4  C   UNL     1     -11.959   9.317 -26.658  0.00  0.00    +0.000 A 
ATOM      5  C   UNL     1     -13.347   9.348 -26.445  0.00  0.00    +0.000 A 
ATOM      6  C   UNL     1     -14.179  10.341 -26.993  0.00  0.00    +0.000 A 
ATOM      7  C   UNL     1     -13.515  11.322 -27.753  0.00  0.00    +0.000 A 
ATOM      8  C   UNL     1     -12.127  11.303 -27.972  0.00  0.00    +0.000 A 
ENDBRANCH   1   6
BRANCH   1   9
ATOM      9  C   UNL     1     -16.492   9.739 -27.721  0.00  0.00    +0.000 C 
BRANCH   9  10
ATOM     10  C   UNL     1     -17.123   8.437 -27.170  0.00  0.00    +0.000 C 
ATOM     11  C   UNL     1     -18.578   8.309 -27.606  0.00  0.00    +0.000 C 
BRANCH  10  12
ATOM     12  O   UNL     1     -16.415   7.282 -27.643  0.00  0.00    +0.000 OA
ATOM     13  H   UNL     1     -16.059   7.487 -28.524  0.00  0.00    +0.000 HD
ENDBRANCH  10  12
ENDBRANCH   9  10
ENDBRANCH   1   9
BRANCH   1  14
ATOM     14  C   UNL     1     -16.168  11.426 -25.903  0.00  0.00    +0.000 C 
BRANCH  14  15
ATOM     15  C   UNL     1     -15.303  11.737 -24.657  0.00  0.00    +0.000 C 
ATOM     16  C   UNL     1     -15.334  13.207 -24.257  0.00  0.00    +0.000 C 
BRANCH  15  17
ATOM     17  O   UNL     1     -15.707  10.963 -23.529  0.00  0.00    +0.000 OA
ATOM     18  H   UNL     1     -16.597  11.298 -23.298  0.00  0.00    +0.000 HD
ENDBRANCH  15  17
ENDBRANCH  14  15
ENDBRANCH   1  14
TORSDOF 7
ENDMDL
MODEL 3
REMARK VINA RESULT:    -3.892      2.010      2.836
REMARK INTER + INTRA:          -5.814
REMARK INTER:                  -5.162
REMARK INTRA:                  -0.652
REMARK UNBOUND:                -0.556
REMARK  Name = 
REMARK  10 active torsions:
REMARK  status: ('A' for Active; 'I' for Inactive)
REMARK    1  A    between atoms: C_1  and  C_2
REMARK    2  A    between atoms: C_5  and  N_8
REMARK    3  A    between atoms: N_8  and  C_9
REMARK    4  A    between atoms: N_8  and  C_13
REMARK    5  A    between atoms: C_9  and  C_10
REMARK    6  A    between atoms: C_10  and  C_11
REMARK    7  A    between atoms: C_10  and  O_12
REMARK    8  A    between atoms: C_13  and  C_14
REMARK    9  A    between atoms: C_14  and  C_15
REMARK   10  A    between atoms: C_14  and  O_16
REMARK                            x       y       z     vdW  Elec       q    Type
REMARK                         _______ _______ _______ _____ _____    ______ ____
ROOT
ATOM      1  N   UNL     1     -18.962  11.238 -24.058  0.00  0.00    +0.000 N 
ENDROOT
BRANCH   1   6
ATOM      2  C   UNL     1     -19.111  16.943 -24.927  0.00  0.00    +0.000 C 
ATOM      3  C   UNL     1     -19.080  15.459 -24.725  0.00  0.00    +0.000 A 
ATOM      4  C   UNL     1     -20.195  14.779 -24.247  0.00  0.00    +0.000 A 
ATOM      5  C   UNL     1     -20.150  13.392 -24.031  0.00  0.00    +0.000 A 
ATOM      6  C   UNL     1     -18.994  12.624 -24.257  0.00  0.00    +0.000 A 
ATOM      7  C   UNL     1     -17.886  13.343 -24.742  0.00  0.00    +0.000 A 
ATOM      8  C   UNL     1     -17.918  14.730 -24.964  0.00  0.00    +0.000 A 
ENDBRANCH   1   6
BRANCH   1   9
ATOM      9  C   UNL     1     -19.693  10.337 -24.982  0.00  0.00    +0.000 C 
BRANCH   9  10
ATOM     10  C   UNL     1     -18.755   9.370 -25.745  0.00  0.00    +0.000 C 
ATOM     11  C   UNL     1     -19.486   8.705 -26.906  0.00  0.00    +0.000 C 
BRANCH  10  12
ATOM     12  O   UNL     1     -17.620  10.067 -26.277  0.00  0.00    +0.000 OA
ATOM     13  H   UNL     1     -16.988   9.407 -26.605  0.00  0.00    +0.000 HD
ENDBRANCH  10  12
ENDBRANCH   9  10
ENDBRANCH   1   9
BRANCH   1  14
ATOM     14  C   UNL     1     -18.672  10.659 -22.721  0.00  0.00    +0.000 C 
BRANCH  14  15
ATOM     15  C   UNL     1     -17.153  10.579 -22.436  0.00  0.00    +0.000 C 
ATOM     16  C   UNL     1     -16.781   9.450 -21.482  0.00  0.00    +0.000 C 
BRANCH  15  17
ATOM     17  O   UNL     1     -16.400  10.411 -23.635  0.00  0.00    +0.000 OA
ATOM     18  H   UNL     1     -16.521   9.472 -23.880  0.00  0.00    +0.000 HD
ENDBRANCH  15  17
ENDBRANCH  14  15
ENDBRANCH   1  14
TORSDOF 7
ENDMDL
MODEL 4
REMARK VINA RESULT:    -3.847      2.565      3.841
REMARK INTER + INTRA:          -5.753
REMARK INTER:                  -5.550
REMARK INTRA:                  -0.203
REMARK UNBOUND:                -0.556
REMARK  Name = 
REMARK  10 active torsions:
REMARK  status: ('A' for Active; 'I' for Inactive)
REMARK    1  A    between atoms: C_1  and  C_2
REMARK    2  A    between atoms: C_5  and  N_8
REMARK    3  A    between atoms: N_8  and  C_9
REMARK    4  A    between atoms: N_8  and  C_13
REMARK    5  A    between atoms: C_9  and  C_10
REMARK    6  A    between atoms: C_10  and  C_11
REMARK    7  A    between atoms: C_10  and  O_12
REMARK    8  A    between atoms: C_13  and  C_14
REMARK    9  A    between atoms: C_14  and  C_15
REMARK   10  A    between atoms: C_14  and  O_16
REMARK                            x       y       z     vdW  Elec       q    Type
REMARK                         _______ _______ _______ _____ _____    ______ ____
ROOT
ATOM      1  N   UNL     1     -16.258  10.497 -26.351  0.00  0.00    +0.000 N 
ENDROOT
BRANCH   1   6
ATOM      2  C   UNL     1     -19.540  12.702 -22.145  0.00  0.00    +0.000 C 
ATOM      3  C   UNL     1     -18.671  12.123 -23.219  0.00  0.00    +0.000 A 
ATOM      4  C   UNL     1     -17.758  12.918 -23.905  0.00  0.00    +0.000 A 
ATOM      5  C   UNL     1     -16.967  12.377 -24.932  0.00  0.00    +0.000 A 
ATOM      6  C   UNL     1     -17.063  11.034 -25.339  0.00  0.00    +0.000 A 
ATOM      7  C   UNL     1     -17.995  10.260 -24.623  0.00  0.00    +0.000 A 
ATOM      8  C   UNL     1     -18.790  10.788 -23.593  0.00  0.00    +0.000 A 
ENDBRANCH   1   6
BRANCH   1   9
ATOM      9  C   UNL     1     -14.910  11.060 -26.607  0.00  0.00    +0.000 C 
BRANCH   9  10
ATOM     10  C   UNL     1     -13.834   9.968 -26.822  0.00  0.00    +0.000 C 
ATOM     11  C   UNL     1     -12.776  10.434 -27.815  0.00  0.00    +0.000 C 
BRANCH  10  12
ATOM     12  O   UNL     1     -13.175   9.645 -25.590  0.00  0.00    +0.000 OA
ATOM     13  H   UNL     1     -13.523   8.793 -25.277  0.00  0.00    +0.000 HD
ENDBRANCH  10  12
ENDBRANCH   9  10
ENDBRANCH   1   9
BRANCH   1  14
ATOM     14  C   UNL     1     -16.851   9.754 -27.493  0.00  0.00    +0.000 C 
BRANCH  14  15
ATOM     15  C   UNL     1     -17.247   8.309 -27.107  0.00  0.00    +0.000 C 
ATOM     16  C   UNL     1     -18.677   7.955 -27.497  0.00  0.00    +0.000 C 
BRANCH  15  17
ATOM     17  O   UNL     1     -16.376   7.347 -27.700  0.00  0.00    +0.000 OA
ATOM     18  H   UNL     1     -16.163   7.710 -28.583  0.00  0.00    +0.000 HD
ENDBRANCH  15  17
ENDBRANCH  14  15
ENDBRANCH   1  14
TORSDOF 7
ENDMDL
MODEL 5
REMARK VINA RESULT:    -3.768      3.146      4.975
REMARK INTER + INTRA:          -5.646
REMARK INTER:                  -5.255
REMARK INTRA:                  -0.391
REMARK UNBOUND:                -0.556
REMARK  Name = 
REMARK  10 active torsions:
REMARK  status: ('A' for Active; 'I' for Inactive)
REMARK    1  A    between atoms: C_1  and  C_2
REMARK    2  A    between atoms: C_5  and  N_8
REMARK    3  A    between atoms: N_8  and  C_9
REMARK    4  A    between atoms: N_8  and  C_13
REMARK    5  A    between atoms: C_9  and  C_10
REMARK    6  A    between atoms: C_10  and  C_11
REMARK    7  A    between atoms: C_10  and  O_12
REMARK    8  A    between atoms: C_13  and  C_14
REMARK    9  A    between atoms: C_14  and  C_15
REMARK   10  A    between atoms: C_14  and  O_16
REMARK                            x       y       z     vdW  Elec       q    Type
REMARK                         _______ _______ _______ _____ _____    ______ ____
ROOT
ATOM      1  N   UNL     1     -16.590  10.765 -26.272  0.00  0.00    +0.000 N 
ENDROOT
BRANCH   1   6
ATOM      2  C   UNL     1     -19.305  10.730 -21.177  0.00  0.00    +0.000 C 
ATOM      3  C   UNL     1     -18.599  10.764 -22.498  0.00  0.00    +0.000 A 
ATOM      4  C   UNL     1     -19.315  10.813 -23.689  0.00  0.00    +0.000 A 
ATOM      5  C   UNL     1     -18.649  10.814 -24.926  0.00  0.00    +0.000 A 
ATOM      6  C   UNL     1     -17.248  10.744 -25.036  0.00  0.00    +0.000 A 
ATOM      7  C   UNL     1     -16.557  10.697 -23.812  0.00  0.00    +0.000 A 
ATOM      8  C   UNL     1     -17.211  10.697 -22.568  0.00  0.00    +0.000 A 
ENDBRANCH   1   6
BRANCH   1   9
ATOM      9  C   UNL     1     -16.995   9.827 -27.347  0.00  0.00    +0.000 C 
BRANCH   9  10
ATOM     10  C   UNL     1     -17.298   8.404 -26.818  0.00  0.00    +0.000 C 
ATOM     11  C   UNL     1     -18.717   7.979 -27.179  0.00  0.00    +0.000 C 
BRANCH  10  12
ATOM     12  O   UNL     1     -16.391   7.443 -27.377  0.00  0.00    +0.000 OA
ATOM     13  H   UNL     1     -15.486   7.730 -27.173  0.00  0.00    +0.000 HD
ENDBRANCH  10  12
ENDBRANCH   9  10
ENDBRANCH   1   9
BRANCH   1  14
ATOM     14  C   UNL     1     -15.210  11.301 -26.399  0.00  0.00    +0.000 C 
BRANCH  14  15
ATOM     15  C   UNL     1     -14.181  10.194 -26.729  0.00  0.00    +0.000 C 
ATOM     16  C   UNL     1     -13.253  10.561 -27.881  0.00  0.00    +0.000 C 
BRANCH  15  17
ATOM     17  O   UNL     1     -13.374   9.871 -25.597  0.00  0.00    +0.000 OA
ATOM     18  H   UNL     1     -12.526  10.335 -25.750  0.00  0.00    +0.000 HD
ENDBRANCH  15  17
ENDBRANCH  14  15
ENDBRANCH   1  14
TORSDOF 7
ENDMDL
MODEL 6
REMARK VINA RESULT:    -3.664      3.522      4.468
REMARK INTER + INTRA:          -5.505
REMARK INTER:                  -5.141
REMARK INTRA:                  -0.364
REMARK UNBOUND:                -0.556
REMARK  Name = 
REMARK  10 active torsions:
REMARK  status: ('A' for Active; 'I' for Inactive)
REMARK    1  A    between atoms: C_1  and  C_2
REMARK    2  A    between atoms: C_5  and  N_8
REMARK    3  A    between atoms: N_8  and  C_9
REMARK    4  A    between atoms: N_8  and  C_13
REMARK    5  A    between atoms: C_9  and  C_10
REMARK    6  A    between atoms: C_10  and  C_11
REMARK    7  A    between atoms: C_10  and  O_12
REMARK    8  A    between atoms: C_13  and  C_14
REMARK    9  A    between atoms: C_14  and  C_15
REMARK   10  A    between atoms: C_14  and  O_16
REMARK                            x       y       z     vdW  Elec       q    Type
REMARK                         _______ _______ _______ _____ _____    ______ ____
ROOT
ATOM      1  N   UNL     1     -15.254  10.236 -27.108  0.00  0.00    +0.000 N 
ENDROOT
BRANCH   1   6
ATOM      2  C   UNL     1     -15.355  15.043 -23.913  0.00  0.00    +0.000 C 
ATOM      3  C   UNL     1     -15.354  13.798 -24.747  0.00  0.00    +0.000 A 
ATOM      4  C   UNL     1     -15.559  12.551 -24.168  0.00  0.00    +0.000 A 
ATOM      5  C   UNL     1     -15.527  11.384 -24.949  0.00  0.00    +0.000 A 
ATOM      6  C   UNL     1     -15.266  11.401 -26.332  0.00  0.00    +0.000 A 
ATOM      7  C   UNL     1     -15.064  12.680 -26.883  0.00  0.00    +0.000 A 
ATOM      8  C   UNL     1     -15.097  13.854 -26.113  0.00  0.00    +0.000 A 
ENDBRANCH   1   6
BRANCH   1   9
ATOM      9  C   UNL     1     -13.976   9.721 -27.656  0.00  0.00    +0.000 C 
BRANCH   9  10
ATOM     10  C   UNL     1     -12.792   9.882 -26.670  0.00  0.00    +0.000 C 
ATOM     11  C   UNL     1     -12.389   8.537 -26.077  0.00  0.00    +0.000 C 
BRANCH  10  12
ATOM     12  O   UNL     1     -11.646  10.439 -27.329  0.00  0.00    +0.000 OA
ATOM     13  H   UNL     1     -11.112  10.903 -26.663  0.00  0.00    +0.000 HD
ENDBRANCH  10  12
ENDBRANCH   9  10
ENDBRANCH   1   9
BRANCH   1  14
ATOM     14  C   UNL     1     -16.470   9.779 -27.828  0.00  0.00    +0.000 C 
BRANCH  14  15
ATOM     15  C   UNL     1     -17.095   8.521 -27.178  0.00  0.00    +0.000 C 
ATOM     16  C   UNL     1     -18.591   8.391 -27.440  0.00  0.00    +0.000 C 
BRANCH  15  17
ATOM     17  O   UNL     1     -16.462   7.325 -27.631  0.00  0.00    +0.000 OA
ATOM     18  H   UNL     1     -16.347   6.779 -26.827  0.00  0.00    +0.000 HD
ENDBRANCH  15  17
ENDBRANCH  14  15
ENDBRANCH   1  14
TORSDOF 7
ENDMDL
MODEL 7
REMARK VINA RESULT:    -3.639      1.631      2.276
REMARK INTER + INTRA:          -5.471
REMARK INTER:                  -5.005
REMARK INTRA:                  -0.466
REMARK UNBOUND:                -0.556
REMARK  Name = 
REMARK  10 active torsions:
REMARK  status: ('A' for Active; 'I' for Inactive)
REMARK    1  A    between atoms: C_1  and  C_2
REMARK    2  A    between atoms: C_5  and  N_8
REMARK    3  A    between atoms: N_8  and  C_9
REMARK    4  A    between atoms: N_8  and  C_13
REMARK    5  A    between atoms: C_9  and  C_10
REMARK    6  A    between atoms: C_10  and  C_11
REMARK    7  A    between atoms: C_10  and  O_12
REMARK    8  A    between atoms: C_13  and  C_14
REMARK    9  A    between atoms: C_14  and  C_15
REMARK   10  A    between atoms: C_14  and  O_16
REMARK                            x       y       z     vdW  Elec       q    Type
REMARK                         _______ _______ _______ _____ _____    ______ ____
ROOT
ATOM      1  N   UNL     1     -16.396  11.452 -25.029  0.00  0.00    +0.000 N 
ENDROOT
BRANCH   1   6
ATOM      2  C   UNL     1     -15.965  16.987 -23.445  0.00  0.00    +0.000 C 
ATOM      3  C   UNL     1     -16.082  15.545 -23.833  0.00  0.00    +0.000 A 
ATOM      4  C   UNL     1     -14.971  14.708 -23.817  0.00  0.00    +0.000 A 
ATOM      5  C   UNL     1     -15.081  13.364 -24.210  0.00  0.00    +0.000 A 
ATOM      6  C   UNL     1     -16.289  12.798 -24.657  0.00  0.00    +0.000 A 
ATOM      7  C   UNL     1     -17.391  13.673 -24.658  0.00  0.00    +0.000 A 
ATOM      8  C   UNL     1     -17.296  15.018 -24.265  0.00  0.00    +0.000 A 
ENDBRANCH   1   6
BRANCH   1   9
ATOM      9  C   UNL     1     -16.136  11.046 -26.431  0.00  0.00    +0.000 C 
BRANCH   9  10
ATOM     10  C   UNL     1     -14.747  10.388 -26.618  0.00  0.00    +0.000 C 
ATOM     11  C   UNL     1     -13.913  11.155 -27.637  0.00  0.00    +0.000 C 
BRANCH  10  12
ATOM     12  O   UNL     1     -14.021  10.359 -25.381  0.00  0.00    +0.000 OA
ATOM     13  H   UNL     1     -14.635  10.593 -24.665  0.00  0.00    +0.000 HD
ENDBRANCH  10  12
ENDBRANCH   9  10
ENDBRANCH   1   9
BRANCH   1  14
ATOM     14  C   UNL     1     -17.228  10.502 -24.247  0.00  0.00    +0.000 C 
BRANCH  14  15
ATOM     15  C   UNL     1     -16.996  10.640 -22.723  0.00  0.00    +0.000 C 
ATOM     16  C   UNL     1     -18.204  10.221 -21.893  0.00  0.00    +0.000 C 
BRANCH  15  17
ATOM     17  O   UNL     1     -15.875   9.872 -22.289  0.00  0.00    +0.000 OA
ATOM     18  H   UNL     1     -16.149   8.940 -22.397  0.00  0.00    +0.000 HD
ENDBRANCH  15  17
ENDBRANCH  14  15
ENDBRANCH   1  14
TORSDOF 7
ENDMDL
MODEL 8
REMARK VINA RESULT:    -3.616     14.928     16.935
REMARK INTER + INTRA:          -5.440
REMARK INTER:                  -4.971
REMARK INTRA:                  -0.469
REMARK UNBOUND:                -0.556
REMARK  Name = 
REMARK  10 active torsions:
REMARK  status: ('A' for Active; 'I' for Inactive)
REMARK    1  A    between atoms: C_1  and  C_2
REMARK    2  A    between atoms: C_5  and  N_8
REMARK    3  A    between atoms: N_8  and  C_9
REMARK    4  A    between atoms: N_8  and  C_13
REMARK    5  A    between atoms: C_9  and  C_10
REMARK    6  A    between atoms: C_10  and  C_11
REMARK    7  A    between atoms: C_10  and  O_12
REMARK    8  A    between atoms: C_13  and  C_14
REMARK    9  A    between atoms: C_14  and  C_15
REMARK   10  A    between atoms: C_14  and  O_16
REMARK                            x       y       z     vdW  Elec       q    Type
REMARK                         _______ _______ _______ _____ _____    ______ ____
ROOT
ATOM      1  N   UNL     1     -17.471  14.051  -6.899  0.00  0.00    +0.000 N 
ENDROOT
BRANCH   1   6
ATOM      2  C   UNL     1     -19.297  16.982 -11.526  0.00  0.00    +0.000 C 
ATOM      3  C   UNL     1     -18.804  16.237 -10.323  0.00  0.00    +0.000 A 
ATOM      4  C   UNL     1     -17.930  15.163 -10.456  0.00  0.00    +0.000 A 
ATOM      5  C   UNL     1     -17.495  14.450  -9.327  0.00  0.00    +0.000 A 
ATOM      6  C   UNL     1     -17.924  14.754  -8.022  0.00  0.00    +0.000 A 
ATOM      7  C   UNL     1     -18.805  15.847  -7.925  0.00  0.00    +0.000 A 
ATOM      8  C   UNL     1     -19.246  16.570  -9.046  0.00  0.00    +0.000 A 
ENDBRANCH   1   6
BRANCH   1   9
ATOM      9  C   UNL     1     -16.488  14.673  -5.979  0.00  0.00    +0.000 C 
BRANCH   9  10
ATOM     10  C   UNL     1     -15.315  15.355  -6.726  0.00  0.00    +0.000 C 
ATOM     11  C   UNL     1     -15.227  16.833  -6.366  0.00  0.00    +0.000 C 
BRANCH  10  12
ATOM     12  O   UNL     1     -14.064  14.740  -6.390  0.00  0.00    +0.000 OA
ATOM     13  H   UNL     1     -13.781  15.085  -5.527  0.00  0.00    +0.000 HD
ENDBRANCH  10  12
ENDBRANCH   9  10
ENDBRANCH   1   9
BRANCH   1  14
ATOM     14  C   UNL     1     -17.520  12.567  -6.849  0.00  0.00    +0.000 C 
BRANCH  14  15
ATOM     15  C   UNL     1     -16.122  11.929  -7.034  0.00  0.00    +0.000 C 
ATOM     16  C   UNL     1     -15.693  11.072  -5.850  0.00  0.00    +0.000 C 
BRANCH  15  17
ATOM     17  O   UNL     1     -16.062  11.122  -8.209  0.00  0.00    +0.000 OA
ATOM     18  H   UNL     1     -16.805  11.431  -8.766  0.00  0.00    +0.000 HD
ENDBRANCH  15  17
ENDBRANCH  14  15
ENDBRANCH   1  14
TORSDOF 7
ENDMDL
