MODEL 1
REMARK VINA RESULT:    -4.101      0.000      0.000
REMARK INTER + INTRA:          -6.105
REMARK INTER:                  -5.540
REMARK INTRA:                  -0.565
REMARK UNBOUND:                -0.565
REMARK  Name = 
REMARK  10 active torsions:
REMARK  status: ('A' for Active; 'I' for Inactive)
REMARK    1  A    between atoms: C_1  and  C_2
REMARK    2  A    between atoms: C_5  and  N_8
REMARK    3  A    between atoms: N_8  and  C_9
REMARK    4  A    between atoms: N_8  and  C_13
REMARK    5  A    between atoms: C_9  and  C_10
REMARK    6  A    between atoms: C_10  and  C_11
REMARK    7  A    between atoms: C_10  and  O_12
REMARK    8  A    between atoms: C_13  and  C_14
REMARK    9  A    between atoms: C_14  and  C_15
REMARK   10  A    between atoms: C_14  and  O_16
REMARK                            x       y       z     vdW  Elec       q    Type
REMARK                         _______ _______ _______ _____ _____    ______ ____
ROOT
ATOM      1  N   UNL     1     -16.881  12.023 -24.192  0.00  0.00    +0.000 N 
ENDROOT
BRANCH   1   6
ATOM      2  C   UNL     1     -20.086  16.482 -25.974  0.00  0.00    +0.000 C 
ATOM      3  C   UNL     1     -19.248  15.338 -25.491  0.00  0.00    +0.000 A 
ATOM      4  C   UNL     1     -17.915  15.218 -25.871  0.00  0.00    +0.000 A 
ATOM      5  C   UNL     1     -17.143  14.127 -25.440  0.00  0.00    +0.000 A 
ATOM      6  C   UNL     1     -17.663  13.097 -24.634  0.00  0.00    +0.000 A 
ATOM      7  C   UNL     1     -19.012  13.252 -24.268  0.00  0.00    +0.000 A 
ATOM      8  C   UNL     1     -19.795  14.339 -24.691  0.00  0.00    +0.000 A 
ENDBRANCH   1   6
BRANCH   1   9
ATOM      9  C   UNL     1     -15.433  11.977 -24.507  0.00  0.00    +0.000 C 
BRANCH   9  10
ATOM     10  C   UNL     1     -15.099  10.994 -25.655  0.00  0.00    +0.000 C 
ATOM     11  C   UNL     1     -14.918  11.736 -26.973  0.00  0.00    +0.000 C 
BRANCH  10  12
ATOM     12  O   UNL     1     -13.889  10.274 -25.381  0.00  0.00    +0.000 OA
ATOM     13  H   UNL     1     -13.608  10.491 -24.476  0.00  0.00    +0.000 HD
ENDBRANCH  10  12
ENDBRANCH   9  10
ENDBRANCH   1   9
BRANCH   1  14
ATOM     14  C   UNL     1     -17.493  10.706 -23.875  0.00  0.00    +0.000 C 
BRANCH  14  15
ATOM     15  C   UNL     1     -17.462  10.397 -22.359  0.00  0.00    +0.000 C 
ATOM     16  C   UNL     1     -18.837  10.462 -21.706  0.00  0.00    +0.000 C 
BRANCH  15  17
ATOM     17  O   UNL     1     -16.907   9.110 -22.095  0.00  0.00    +0.000 OA
ATOM     18  H   UNL     1     -17.615   8.620 -21.630  0.00  0.00    +0.000 HD
ENDBRANCH  15  17
ENDBRANCH  14  15
ENDBRANCH   1  14
TORSDOF 7
ENDMDL
MODEL 2
REMARK VINA RESULT:    -3.897      1.623      3.503
REMARK INTER + INTRA:          -5.829
REMARK INTER:                  -5.277
REMARK INTRA:                  -0.552
REMARK UNBOUND:                -0.565
REMARK  Name = 
REMARK  10 active torsions:
REMARK  status: ('A' for Active; 'I' for Inactive)
REMARK    1  A    between atoms: C_1  and  C_2
REMARK    2  A    between atoms: C_5  and  N_8
REMARK    3  A    between atoms: N_8  and  C_9
REMARK    4  A    between atoms: N_8  and  C_13
REMARK    5  A    between atoms: C_9  and  C_10
REMARK    6  A    between atoms: C_10  and  C_11
REMARK    7  A    between atoms: C_10  and  O_12
REMARK    8  A    between atoms: C_13  and  C_14
REMARK    9  A    between atoms: C_14  and  C_15
REMARK   10  A    between atoms: C_14  and  O_16
REMARK                            x       y       z     vdW  Elec       q    Type
REMARK                         _______ _______ _______ _____ _____    ______ ____
ROOT
ATOM      1  N   UNL     1     -17.231  12.206 -24.801  0.00  0.00    +0.000 N 
ENDROOT
BRANCH   1   6
ATOM      2  C   UNL     1     -19.314  16.860 -22.095  0.00  0.00    +0.000 C 
ATOM      3  C   UNL     1     -18.762  15.645 -22.776  0.00  0.00    +0.000 A 
ATOM      4  C   UNL     1     -17.532  15.685 -23.423  0.00  0.00    +0.000 A 
ATOM      5  C   UNL     1     -17.034  14.552 -24.085  0.00  0.00    +0.000 A 
ATOM      6  C   UNL     1     -17.742  13.339 -24.155  0.00  0.00    +0.000 A 
ATOM      7  C   UNL     1     -18.981  13.334 -23.488  0.00  0.00    +0.000 A 
ATOM      8  C   UNL     1     -19.490  14.460 -22.820  0.00  0.00    +0.000 A 
ENDBRANCH   1   6
BRANCH   1   9
ATOM      9  C   UNL     1     -17.416  10.862 -24.203  0.00  0.00    +0.000 C 
BRANCH   9  10
ATOM     10  C   UNL     1     -16.892  10.775 -22.748  0.00  0.00    +0.000 C 
ATOM     11  C   UNL     1     -17.823   9.934 -21.883  0.00  0.00    +0.000 C 
BRANCH  10  12
ATOM     12  O   UNL     1     -15.588  10.181 -22.706  0.00  0.00    +0.000 OA
ATOM     13  H   UNL     1     -15.241  10.278 -21.803  0.00  0.00    +0.000 HD
ENDBRANCH  10  12
ENDBRANCH   9  10
ENDBRANCH   1   9
BRANCH   1  14
ATOM     14  C   UNL     1     -16.102  12.312 -25.761  0.00  0.00    +0.000 C 
BRANCH  14  15
ATOM     15  C   UNL     1     -15.525  10.927 -26.140  0.00  0.00    +0.000 C 
ATOM     16  C   UNL     1     -15.267  10.774 -27.634  0.00  0.00    +0.000 C 
BRANCH  15  17
ATOM     17  O   UNL     1     -14.306  10.657 -25.451  0.00  0.00    +0.000 OA
ATOM     18  H   UNL     1     -14.516  10.787 -24.504  0.00  0.00    +0.000 HD
ENDBRANCH  15  17
ENDBRANCH  14  15
ENDBRANCH   1  14
TORSDOF 7
ENDMDL
MODEL 3
REMARK VINA RESULT:    -3.895      2.058      2.883
REMARK INTER + INTRA:          -5.827
REMARK INTER:                  -5.167
REMARK INTRA:                  -0.660
REMARK UNBOUND:                -0.565
REMARK  Name = 
REMARK  10 active torsions:
REMARK  status: ('A' for Active; 'I' for Inactive)
REMARK    1  A    between atoms: C_1  and  C_2
REMARK    2  A    between atoms: C_5  and  N_8
REMARK    3  A    between atoms: N_8  and  C_9
REMARK    4  A    between atoms: N_8  and  C_13
REMARK    5  A    between atoms: C_9  and  C_10
REMARK    6  A    between atoms: C_10  and  C_11
REMARK    7  A    between atoms: C_10  and  O_12
REMARK    8  A    between atoms: C_13  and  C_14
REMARK    9  A    between atoms: C_14  and  C_15
REMARK   10  A    between atoms: C_14  and  O_16
REMARK                            x       y       z     vdW  Elec       q    Type
REMARK                         _______ _______ _______ _____ _____    ______ ____
ROOT
ATOM      1  N   UNL     1     -19.046  11.231 -24.047  0.00  0.00    +0.000 N 
ENDROOT
BRANCH   1   6
ATOM      2  C   UNL     1     -19.078  16.936 -24.930  0.00  0.00    +0.000 C 
ATOM      3  C   UNL     1     -19.078  15.452 -24.725  0.00  0.00    +0.000 A 
ATOM      4  C   UNL     1     -20.196  14.801 -24.213  0.00  0.00    +0.000 A 
ATOM      5  C   UNL     1     -20.179  13.414 -23.994  0.00  0.00    +0.000 A 
ATOM      6  C   UNL     1     -19.049  12.617 -24.250  0.00  0.00    +0.000 A 
ATOM      7  C   UNL     1     -17.938  13.307 -24.768  0.00  0.00    +0.000 A 
ATOM      8  C   UNL     1     -17.942  14.694 -24.994  0.00  0.00    +0.000 A 
ENDBRANCH   1   6
BRANCH   1   9
ATOM      9  C   UNL     1     -19.803  10.344 -24.964  0.00  0.00    +0.000 C 
BRANCH   9  10
ATOM     10  C   UNL     1     -18.890   9.366 -25.742  0.00  0.00    +0.000 C 
ATOM     11  C   UNL     1     -19.620   8.777 -26.943  0.00  0.00    +0.000 C 
BRANCH  10  12
ATOM     12  O   UNL     1     -17.712  10.031 -26.221  0.00  0.00    +0.000 OA
ATOM     13  H   UNL     1     -17.686   9.939 -27.188  0.00  0.00    +0.000 HD
ENDBRANCH  10  12
ENDBRANCH   9  10
ENDBRANCH   1   9
BRANCH   1  14
ATOM     14  C   UNL     1     -18.761  10.650 -22.711  0.00  0.00    +0.000 C 
BRANCH  14  15
ATOM     15  C   UNL     1     -17.242  10.567 -22.422  0.00  0.00    +0.000 C 
ATOM     16  C   UNL     1     -16.873   9.433 -21.472  0.00  0.00    +0.000 C 
BRANCH  15  17
ATOM     17  O   UNL     1     -16.486  10.404 -23.620  0.00  0.00    +0.000 OA
ATOM     18  H   UNL     1     -15.576  10.207 -23.320  0.00  0.00    +0.000 HD
ENDBRANCH  15  17
ENDBRANCH  14  15
ENDBRANCH   1  14
TORSDOF 7
ENDMDL
MODEL 4
REMARK VINA RESULT:    -3.795      2.986      4.245
REMARK INTER + INTRA:          -5.691
REMARK INTER:                  -5.208
REMARK INTRA:                  -0.484
REMARK UNBOUND:                -0.565
REMARK  Name = 
REMARK  10 active torsions:
REMARK  status: ('A' for Active; 'I' for Inactive)
REMARK    1  A    between atoms: C_1  and  C_2
REMARK    2  A    between atoms: C_5  and  N_8
REMARK    3  A    between atoms: N_8  and  C_9
REMARK    4  A    between atoms: N_8  and  C_13
REMARK    5  A    between atoms: C_9  and  C_10
REMARK    6  A    between atoms: C_10  and  C_11
REMARK    7  A    between atoms: C_10  and  O_12
REMARK    8  A    between atoms: C_13  and  C_14
REMARK    9  A    between atoms: C_14  and  C_15
REMARK   10  A    between atoms: C_14  and  O_16
REMARK                            x       y       z     vdW  Elec       q    Type
REMARK                         _______ _______ _______ _____ _____    ______ ____
ROOT
ATOM      1  N   UNL     1     -16.966  10.371 -25.648  0.00  0.00    +0.000 N 
ENDROOT
BRANCH   1   6
ATOM      2  C   UNL     1     -19.561  10.976 -20.526  0.00  0.00    +0.000 C 
ATOM      3  C   UNL     1     -18.897  10.796 -21.857  0.00  0.00    +0.000 A 
ATOM      4  C   UNL     1     -17.604  10.293 -21.949  0.00  0.00    +0.000 A 
ATOM      5  C   UNL     1     -16.976  10.155 -23.197  0.00  0.00    +0.000 A 
ATOM      6  C   UNL     1     -17.591  10.530 -24.405  0.00  0.00    +0.000 A 
ATOM      7  C   UNL     1     -18.899  11.033 -24.275  0.00  0.00    +0.000 A 
ATOM      8  C   UNL     1     -19.540  11.174 -23.033  0.00  0.00    +0.000 A 
ENDBRANCH   1   6
BRANCH   1   9
ATOM      9  C   UNL     1     -15.845  11.260 -26.035  0.00  0.00    +0.000 C 
BRANCH   9  10
ATOM     10  C   UNL     1     -14.657  10.489 -26.662  0.00  0.00    +0.000 C 
ATOM     11  C   UNL     1     -13.985  11.316 -27.752  0.00  0.00    +0.000 C 
BRANCH  10  12
ATOM     12  O   UNL     1     -13.669  10.173 -25.672  0.00  0.00    +0.000 OA
ATOM     13  H   UNL     1     -14.111   9.705 -24.944  0.00  0.00    +0.000 HD
ENDBRANCH  10  12
ENDBRANCH   9  10
ENDBRANCH   1   9
BRANCH   1  14
ATOM     14  C   UNL     1     -17.668   9.721 -26.784  0.00  0.00    +0.000 C 
BRANCH  14  15
ATOM     15  C   UNL     1     -17.832   8.196 -26.574  0.00  0.00    +0.000 C 
ATOM     16  C   UNL     1     -19.178   7.666 -27.053  0.00  0.00    +0.000 C 
BRANCH  15  17
ATOM     17  O   UNL     1     -16.805   7.460 -27.238  0.00  0.00    +0.000 OA
ATOM     18  H   UNL     1     -17.130   6.537 -27.260  0.00  0.00    +0.000 HD
ENDBRANCH  15  17
ENDBRANCH  14  15
ENDBRANCH   1  14
TORSDOF 7
ENDMDL
MODEL 5
REMARK VINA RESULT:    -3.729      3.076      4.939
REMARK INTER + INTRA:          -5.603
REMARK INTER:                  -5.175
REMARK INTRA:                  -0.428
REMARK UNBOUND:                -0.565
REMARK  Name = 
REMARK  10 active torsions:
REMARK  status: ('A' for Active; 'I' for Inactive)
REMARK    1  A    between atoms: C_1  and  C_2
REMARK    2  A    between atoms: C_5  and  N_8
REMARK    3  A    between atoms: N_8  and  C_9
REMARK    4  A    between atoms: N_8  and  C_13
REMARK    5  A    between atoms: C_9  and  C_10
REMARK    6  A    between atoms: C_10  and  C_11
REMARK    7  A    between atoms: C_10  and  O_12
REMARK    8  A    between atoms: C_13  and  C_14
REMARK    9  A    between atoms: C_14  and  C_15
REMARK   10  A    between atoms: C_14  and  O_16
REMARK                            x       y       z     vdW  Elec       q    Type
REMARK                         _______ _______ _______ _____ _____    ______ ____
ROOT
ATOM      1  N   UNL     1     -16.730  10.772 -26.125  0.00  0.00    +0.000 N 
ENDROOT
BRANCH   1   6
ATOM      2  C   UNL     1     -19.390  10.627 -21.004  0.00  0.00    +0.000 C 
ATOM      3  C   UNL     1     -18.698  10.689 -22.330  0.00  0.00    +0.000 A 
ATOM      4  C   UNL     1     -19.424  10.821 -23.510  0.00  0.00    +0.000 A 
ATOM      5  C   UNL     1     -18.771  10.848 -24.753  0.00  0.00    +0.000 A 
ATOM      6  C   UNL     1     -17.376  10.724 -24.883  0.00  0.00    +0.000 A 
ATOM      7  C   UNL     1     -16.674  10.594 -23.671  0.00  0.00    +0.000 A 
ATOM      8  C   UNL     1     -17.314  10.567 -22.421  0.00  0.00    +0.000 A 
ENDBRANCH   1   6
BRANCH   1   9
ATOM      9  C   UNL     1     -17.136   9.846 -27.210  0.00  0.00    +0.000 C 
BRANCH   9  10
ATOM     10  C   UNL     1     -17.415   8.411 -26.702  0.00  0.00    +0.000 C 
ATOM     11  C   UNL     1     -18.839   7.981 -27.034  0.00  0.00    +0.000 C 
BRANCH  10  12
ATOM     12  O   UNL     1     -16.515   7.468 -27.302  0.00  0.00    +0.000 OA
ATOM     13  H   UNL     1     -17.045   6.805 -27.774  0.00  0.00    +0.000 HD
ENDBRANCH  10  12
ENDBRANCH   9  10
ENDBRANCH   1   9
BRANCH   1  14
ATOM     14  C   UNL     1     -15.359  11.326 -26.258  0.00  0.00    +0.000 C 
BRANCH  14  15
ATOM     15  C   UNL     1     -14.343  10.262 -26.740  0.00  0.00    +0.000 C 
ATOM     16  C   UNL     1     -13.527  10.716 -27.945  0.00  0.00    +0.000 C 
BRANCH  15  17
ATOM     17  O   UNL     1     -13.434   9.893 -25.705  0.00  0.00    +0.000 OA
ATOM     18  H   UNL     1     -13.140   8.989 -25.937  0.00  0.00    +0.000 HD
ENDBRANCH  15  17
ENDBRANCH  14  15
ENDBRANCH   1  14
TORSDOF 7
ENDMDL
MODEL 6
REMARK VINA RESULT:    -3.684      2.548      3.873
REMARK INTER + INTRA:          -5.542
REMARK INTER:                  -5.111
REMARK INTRA:                  -0.431
REMARK UNBOUND:                -0.565
REMARK  Name = 
REMARK  10 active torsions:
REMARK  status: ('A' for Active; 'I' for Inactive)
REMARK    1  A    between atoms: C_1  and  C_2
REMARK    2  A    between atoms: C_5  and  N_8
REMARK    3  A    between atoms: N_8  and  C_9
REMARK    4  A    between atoms: N_8  and  C_13
REMARK    5  A    between atoms: C_9  and  C_10
REMARK    6  A    between atoms: C_10  and  C_11
REMARK    7  A    between atoms: C_10  and  O_12
REMARK    8  A    between atoms: C_13  and  C_14
REMARK    9  A    between atoms: C_14  and  C_15
REMARK   10  A    between atoms: C_14  and  O_16
REMARK                            x       y       z     vdW  Elec       q    Type
REMARK                         _______ _______ _______ _____ _____    ______ ____
ROOT
ATOM      1  N   UNL     1     -15.440  10.690 -27.070  0.00  0.00    +0.000 N 
ENDROOT
BRANCH   1   6
ATOM      2  C   UNL     1     -17.613  14.932 -23.813  0.00  0.00    +0.000 C 
ATOM      3  C   UNL     1     -17.071  13.829 -24.670  0.00  0.00    +0.000 A 
ATOM      4  C   UNL     1     -17.169  12.500 -24.272  0.00  0.00    +0.000 A 
ATOM      5  C   UNL     1     -16.632  11.474 -25.066  0.00  0.00    +0.000 A 
ATOM      6  C   UNL     1     -15.956  11.720 -26.274  0.00  0.00    +0.000 A 
ATOM      7  C   UNL     1     -15.877  13.074 -26.646  0.00  0.00    +0.000 A 
ATOM      8  C   UNL     1     -16.411  14.111 -25.863  0.00  0.00    +0.000 A 
ENDBRANCH   1   6
BRANCH   1   9
ATOM      9  C   UNL     1     -14.005  10.685 -27.442  0.00  0.00    +0.000 C 
BRANCH   9  10
ATOM     10  C   UNL     1     -13.200   9.577 -26.719  0.00  0.00    +0.000 C 
ATOM     11  C   UNL     1     -11.719   9.663 -27.068  0.00  0.00    +0.000 C 
BRANCH  10  12
ATOM     12  O   UNL     1     -13.329   9.693 -25.296  0.00  0.00    +0.000 OA
ATOM     13  H   UNL     1     -12.541  10.149 -24.958  0.00  0.00    +0.000 HD
ENDBRANCH  10  12
ENDBRANCH   9  10
ENDBRANCH   1   9
BRANCH   1  14
ATOM     14  C   UNL     1     -16.320   9.896 -27.966  0.00  0.00    +0.000 C 
BRANCH  14  15
ATOM     15  C   UNL     1     -16.907   8.652 -27.257  0.00  0.00    +0.000 C 
ATOM     16  C   UNL     1     -18.339   8.344 -27.676  0.00  0.00    +0.000 C 
BRANCH  15  17
ATOM     17  O   UNL     1     -16.117   7.488 -27.495  0.00  0.00    +0.000 OA
ATOM     18  H   UNL     1     -15.435   7.498 -26.793  0.00  0.00    +0.000 HD
ENDBRANCH  15  17
ENDBRANCH  14  15
ENDBRANCH   1  14
TORSDOF 7
ENDMDL
MODEL 7
REMARK VINA RESULT:    -3.649     14.652     16.828
REMARK INTER + INTRA:          -5.494
REMARK INTER:                  -4.761
REMARK INTRA:                  -0.733
REMARK UNBOUND:                -0.565
REMARK  Name = 
REMARK  10 active torsions:
REMARK  status: ('A' for Active; 'I' for Inactive)
REMARK    1  A    between atoms: C_1  and  C_2
REMARK    2  A    between atoms: C_5  and  N_8
REMARK    3  A    between atoms: N_8  and  C_9
REMARK    4  A    between atoms: N_8  and  C_13
REMARK    5  A    between atoms: C_9  and  C_10
REMARK    6  A    between atoms: C_10  and  C_11
REMARK    7  A    between atoms: C_10  and  O_12
REMARK    8  A    between atoms: C_13  and  C_14
REMARK    9  A    between atoms: C_14  and  C_15
REMARK   10  A    between atoms: C_14  and  O_16
REMARK                            x       y       z     vdW  Elec       q    Type
REMARK                         _______ _______ _______ _____ _____    ______ ____
ROOT
ATOM      1  N   UNL     1     -17.180  14.682  -7.225  0.00  0.00    +0.000 N 
ENDROOT
BRANCH   1   6
ATOM      2  C   UNL     1     -16.606  16.784 -12.571  0.00  0.00    +0.000 C 
ATOM      3  C   UNL     1     -16.734  16.225 -11.187  0.00  0.00    +0.000 A 
ATOM      4  C   UNL     1     -17.489  15.082 -10.945  0.00  0.00    +0.000 A 
ATOM      5  C   UNL     1     -17.630  14.579  -9.641  0.00  0.00    +0.000 A 
ATOM      6  C   UNL     1     -17.051  15.200  -8.520  0.00  0.00    +0.000 A 
ATOM      7  C   UNL     1     -16.294  16.352  -8.801  0.00  0.00    +0.000 A 
ATOM      8  C   UNL     1     -16.143  16.864 -10.101  0.00  0.00    +0.000 A 
ENDBRANCH   1   6
BRANCH   1   9
ATOM      9  C   UNL     1     -18.032  15.376  -6.229  0.00  0.00    +0.000 C 
BRANCH   9  10
ATOM     10  C   UNL     1     -19.541  15.085  -6.422  0.00  0.00    +0.000 C 
ATOM     11  C   UNL     1     -20.180  16.114  -7.346  0.00  0.00    +0.000 C 
BRANCH  10  12
ATOM     12  O   UNL     1     -19.744  13.786  -6.996  0.00  0.00    +0.000 OA
ATOM     13  H   UNL     1     -19.109  13.674  -7.722  0.00  0.00    +0.000 HD
ENDBRANCH  10  12
ENDBRANCH   9  10
ENDBRANCH   1   9
BRANCH   1  14
ATOM     14  C   UNL     1     -16.143  13.791  -6.646  0.00  0.00    +0.000 C 
BRANCH  14  15
ATOM     15  C   UNL     1     -16.344  12.314  -7.062  0.00  0.00    +0.000 C 
ATOM     16  C   UNL     1     -15.837  11.323  -6.021  0.00  0.00    +0.000 C 
BRANCH  15  17
ATOM     17  O   UNL     1     -17.716  12.020  -7.319  0.00  0.00    +0.000 OA
ATOM     18  H   UNL     1     -17.813  11.068  -7.119  0.00  0.00    +0.000 HD
ENDBRANCH  15  17
ENDBRANCH  14  15
ENDBRANCH   1  14
TORSDOF 7
ENDMDL
MODEL 8
REMARK VINA RESULT:    -3.633      2.511      3.737
REMARK INTER + INTRA:          -5.473
REMARK INTER:                  -4.882
REMARK INTRA:                  -0.591
REMARK UNBOUND:                -0.565
REMARK  Name = 
REMARK  10 active torsions:
REMARK  status: ('A' for Active; 'I' for Inactive)
REMARK    1  A    between atoms: C_1  and  C_2
REMARK    2  A    between atoms: C_5  and  N_8
REMARK    3  A    between atoms: N_8  and  C_9
REMARK    4  A    between atoms: N_8  and  C_13
REMARK    5  A    between atoms: C_9  and  C_10
REMARK    6  A    between atoms: C_10  and  C_11
REMARK    7  A    between atoms: C_10  and  O_12
REMARK    8  A    between atoms: C_13  and  C_14
REMARK    9  A    between atoms: C_14  and  C_15
REMARK   10  A    between atoms: C_14  and  O_16
REMARK                            x       y       z     vdW  Elec       q    Type
REMARK                         _______ _______ _______ _____ _____    ______ ____
ROOT
ATOM      1  N   UNL     1     -19.662  11.330 -23.638  0.00  0.00    +0.000 N 
ENDROOT
BRANCH   1   6
ATOM      2  C   UNL     1     -18.647  16.927 -22.652  0.00  0.00    +0.000 C 
ATOM      3  C   UNL     1     -18.932  15.481 -22.920  0.00  0.00    +0.000 A 
ATOM      4  C   UNL     1     -19.634  14.709 -22.001  0.00  0.00    +0.000 A 
ATOM      5  C   UNL     1     -19.872  13.346 -22.243  0.00  0.00    +0.000 A 
ATOM      6  C   UNL     1     -19.405  12.685 -23.393  0.00  0.00    +0.000 A 
ATOM      7  C   UNL     1     -18.700  13.497 -24.301  0.00  0.00    +0.000 A 
ATOM      8  C   UNL     1     -18.457  14.861 -24.072  0.00  0.00    +0.000 A 
ENDBRANCH   1   6
BRANCH   1   9
ATOM      9  C   UNL     1     -18.988  10.287 -22.829  0.00  0.00    +0.000 C 
BRANCH   9  10
ATOM     10  C   UNL     1     -17.507  10.625 -22.527  0.00  0.00    +0.000 C 
ATOM     11  C   UNL     1     -16.910   9.627 -21.543  0.00  0.00    +0.000 C 
BRANCH  10  12
ATOM     12  O   UNL     1     -16.719  10.595 -23.725  0.00  0.00    +0.000 OA
ATOM     13  H   UNL     1     -17.129  11.193 -24.371  0.00  0.00    +0.000 HD
ENDBRANCH  10  12
ENDBRANCH   9  10
ENDBRANCH   1   9
BRANCH   1  14
ATOM     14  C   UNL     1     -20.163  10.869 -24.959  0.00  0.00    +0.000 C 
BRANCH  14  15
ATOM     15  C   UNL     1     -19.372   9.650 -25.490  0.00  0.00    +0.000 C 
ATOM     16  C   UNL     1     -20.161   8.812 -26.490  0.00  0.00    +0.000 C 
BRANCH  15  17
ATOM     17  O   UNL     1     -18.150  10.044 -26.112  0.00  0.00    +0.000 OA
ATOM     18  H   UNL     1     -17.998  10.963 -25.811  0.00  0.00    +0.000 HD
ENDBRANCH  15  17
ENDBRANCH  14  15
ENDBRANCH   1  14
TORSDOF 7
ENDMDL
MODEL 9
REMARK VINA RESULT:    -3.598      1.493      2.105
REMARK INTER + INTRA:          -5.426
REMARK INTER:                  -4.905
REMARK INTRA:                  -0.520
REMARK UNBOUND:                -0.565
REMARK  Name = 
REMARK  10 active torsions:
REMARK  status: ('A' for Active; 'I' for Inactive)
REMARK    1  A    between atoms: C_1  and  C_2
REMARK    2  A    between atoms: C_5  and  N_8
REMARK    3  A    between atoms: N_8  and  C_9
REMARK    4  A    between atoms: N_8  and  C_13
REMARK    5  A    between atoms: C_9  and  C_10
REMARK    6  A    between atoms: C_10  and  C_11
REMARK    7  A    between atoms: C_10  and  O_12
REMARK    8  A    between atoms: C_13  and  C_14
REMARK    9  A    between atoms: C_14  and  C_15
REMARK   10  A    between atoms: C_14  and  O_16
REMARK                            x       y       z     vdW  Elec       q    Type
REMARK                         _______ _______ _______ _____ _____    ______ ____
ROOT
ATOM      1  N   UNL     1     -16.615  11.395 -25.051  0.00  0.00    +0.000 N 
ENDROOT
BRANCH   1   6
ATOM      2  C   UNL     1     -16.135  16.987 -23.700  0.00  0.00    +0.000 C 
ATOM      3  C   UNL     1     -16.267  15.531 -24.028  0.00  0.00    +0.000 A 
ATOM      4  C   UNL     1     -15.194  14.662 -23.865  0.00  0.00    +0.000 A 
ATOM      5  C   UNL     1     -15.315  13.304 -24.201  0.00  0.00    +0.000 A 
ATOM      6  C   UNL     1     -16.495  12.754 -24.736  0.00  0.00    +0.000 A 
ATOM      7  C   UNL     1     -17.560  13.662 -24.885  0.00  0.00    +0.000 A 
ATOM      8  C   UNL     1     -17.453  15.022 -24.550  0.00  0.00    +0.000 A 
ENDBRANCH   1   6
BRANCH   1   9
ATOM      9  C   UNL     1     -16.380  10.930 -26.439  0.00  0.00    +0.000 C 
BRANCH   9  10
ATOM     10  C   UNL     1     -14.898  10.573 -26.710  0.00  0.00    +0.000 C 
ATOM     11  C   UNL     1     -14.210  11.670 -27.514  0.00  0.00    +0.000 C 
BRANCH  10  12
ATOM     12  O   UNL     1     -14.177  10.405 -25.481  0.00  0.00    +0.000 OA
ATOM     13  H   UNL     1     -13.294  10.059 -25.695  0.00  0.00    +0.000 HD
ENDBRANCH  10  12
ENDBRANCH   9  10
ENDBRANCH   1   9
BRANCH   1  14
ATOM     14  C   UNL     1     -17.440  10.482 -24.219  0.00  0.00    +0.000 C 
BRANCH  14  15
ATOM     15  C   UNL     1     -17.141  10.639 -22.708  0.00  0.00    +0.000 C 
ATOM     16  C   UNL     1     -18.313  10.236 -21.820  0.00  0.00    +0.000 C 
BRANCH  15  17
ATOM     17  O   UNL     1     -16.004   9.872 -22.314  0.00  0.00    +0.000 OA
ATOM     18  H   UNL     1     -16.186   9.607 -21.390  0.00  0.00    +0.000 HD
ENDBRANCH  15  17
ENDBRANCH  14  15
ENDBRANCH   1  14
TORSDOF 7
ENDMDL
