MODEL 1
REMARK VINA RESULT:    -4.104      0.000      0.000
REMARK INTER + INTRA:          -6.126
REMARK INTER:                  -5.544
REMARK INTRA:                  -0.582
REMARK UNBOUND:                -0.582
REMARK  Name = 
REMARK  10 active torsions:
REMARK  status: ('A' for Active; 'I' for Inactive)
REMARK    1  A    between atoms: C_1  and  C_2
REMARK    2  A    between atoms: C_5  and  N_8
REMARK    3  A    between atoms: N_8  and  C_9
REMARK    4  A    between atoms: N_8  and  C_13
REMARK    5  A    between atoms: C_9  and  C_10
REMARK    6  A    between atoms: C_10  and  C_11
REMARK    7  A    between atoms: C_10  and  O_12
REMARK    8  A    between atoms: C_13  and  C_14
REMARK    9  A    between atoms: C_14  and  C_15
REMARK   10  A    between atoms: C_14  and  O_16
REMARK                            x       y       z     vdW  Elec       q    Type
REMARK                         _______ _______ _______ _____ _____    ______ ____
ROOT
ATOM      1  N   UNL     1     -16.902  12.102 -24.209  0.00  0.00    +0.000 N 
ENDROOT
BRANCH   1   6
ATOM      2  C   UNL     1     -20.116  16.557 -25.985  0.00  0.00    +0.000 C 
ATOM      3  C   UNL     1     -19.275  15.414 -25.504  0.00  0.00    +0.000 A 
ATOM      4  C   UNL     1     -17.948  15.287 -25.900  0.00  0.00    +0.000 A 
ATOM      5  C   UNL     1     -17.173  14.198 -25.470  0.00  0.00    +0.000 A 
ATOM      6  C   UNL     1     -17.685  13.176 -24.650  0.00  0.00    +0.000 A 
ATOM      7  C   UNL     1     -19.030  13.338 -24.267  0.00  0.00    +0.000 A 
ATOM      8  C   UNL     1     -19.815  14.424 -24.688  0.00  0.00    +0.000 A 
ENDBRANCH   1   6
BRANCH   1   9
ATOM      9  C   UNL     1     -15.452  12.063 -24.520  0.00  0.00    +0.000 C 
BRANCH   9  10
ATOM     10  C   UNL     1     -15.107  11.055 -25.643  0.00  0.00    +0.000 C 
ATOM     11  C   UNL     1     -14.899  11.771 -26.973  0.00  0.00    +0.000 C 
BRANCH  10  12
ATOM     12  O   UNL     1     -13.906  10.332 -25.335  0.00  0.00    +0.000 OA
ATOM     13  H   UNL     1     -14.110   9.698 -24.628  0.00  0.00    +0.000 HD
ENDBRANCH  10  12
ENDBRANCH   9  10
ENDBRANCH   1   9
BRANCH   1  14
ATOM     14  C   UNL     1     -17.510  10.783 -23.899  0.00  0.00    +0.000 C 
BRANCH  14  15
ATOM     15  C   UNL     1     -17.440  10.448 -22.390  0.00  0.00    +0.000 C 
ATOM     16  C   UNL     1     -18.800  10.492 -21.703  0.00  0.00    +0.000 C 
BRANCH  15  17
ATOM     17  O   UNL     1     -16.871   9.160 -22.161  0.00  0.00    +0.000 OA
ATOM     18  H   UNL     1     -15.904   9.301 -22.196  0.00  0.00    +0.000 HD
ENDBRANCH  15  17
ENDBRANCH  14  15
ENDBRANCH   1  14
TORSDOF 7
ENDMDL
MODEL 2
REMARK VINA RESULT:    -3.857      1.600      3.493
REMARK INTER + INTRA:          -5.791
REMARK INTER:                  -5.276
REMARK INTRA:                  -0.515
REMARK UNBOUND:                -0.582
REMARK  Name = 
REMARK  10 active torsions:
REMARK  status: ('A' for Active; 'I' for Inactive)
REMARK    1  A    between atoms: C_1  and  C_2
REMARK    2  A    between atoms: C_5  and  N_8
REMARK    3  A    between atoms: N_8  and  C_9
REMARK    4  A    between atoms: N_8  and  C_13
REMARK    5  A    between atoms: C_9  and  C_10
REMARK    6  A    between atoms: C_10  and  C_11
REMARK    7  A    between atoms: C_10  and  O_12
REMARK    8  A    between atoms: C_13  and  C_14
REMARK    9  A    between atoms: C_14  and  C_15
REMARK   10  A    between atoms: C_14  and  O_16
REMARK                            x       y       z     vdW  Elec       q    Type
REMARK                         _______ _______ _______ _____ _____    ______ ____
ROOT
ATOM      1  N   UNL     1     -17.141  12.288 -24.893  0.00  0.00    +0.000 N 
ENDROOT
BRANCH   1   6
ATOM      2  C   UNL     1     -19.133  16.987 -22.195  0.00  0.00    +0.000 C 
ATOM      3  C   UNL     1     -18.606  15.760 -22.873  0.00  0.00    +0.000 A 
ATOM      4  C   UNL     1     -17.351  15.757 -23.472  0.00  0.00    +0.000 A 
ATOM      5  C   UNL     1     -16.875  14.613 -24.133  0.00  0.00    +0.000 A 
ATOM      6  C   UNL     1     -17.630  13.432 -24.249  0.00  0.00    +0.000 A 
ATOM      7  C   UNL     1     -18.893  13.470 -23.630  0.00  0.00    +0.000 A 
ATOM      8  C   UNL     1     -19.380  14.606 -22.964  0.00  0.00    +0.000 A 
ENDBRANCH   1   6
BRANCH   1   9
ATOM      9  C   UNL     1     -17.394  10.946 -24.316  0.00  0.00    +0.000 C 
BRANCH   9  10
ATOM     10  C   UNL     1     -16.975  10.842 -22.829  0.00  0.00    +0.000 C 
ATOM     11  C   UNL     1     -17.970  10.000 -22.040  0.00  0.00    +0.000 C 
BRANCH  10  12
ATOM     12  O   UNL     1     -15.680  10.237 -22.700  0.00  0.00    +0.000 OA
ATOM     13  H   UNL     1     -15.010  10.925 -22.848  0.00  0.00    +0.000 HD
ENDBRANCH  10  12
ENDBRANCH   9  10
ENDBRANCH   1   9
BRANCH   1  14
ATOM     14  C   UNL     1     -15.980  12.362 -25.816  0.00  0.00    +0.000 C 
BRANCH  14  15
ATOM     15  C   UNL     1     -15.418  10.963 -26.162  0.00  0.00    +0.000 C 
ATOM     16  C   UNL     1     -15.015  10.822 -27.625  0.00  0.00    +0.000 C 
BRANCH  15  17
ATOM     17  O   UNL     1     -14.284  10.637 -25.358  0.00  0.00    +0.000 OA
ATOM     18  H   UNL     1     -14.455  11.064 -24.495  0.00  0.00    +0.000 HD
ENDBRANCH  15  17
ENDBRANCH  14  15
ENDBRANCH   1  14
TORSDOF 7
ENDMDL
MODEL 3
REMARK VINA RESULT:    -3.854      2.024      2.854
REMARK INTER + INTRA:          -5.788
REMARK INTER:                  -5.132
REMARK INTRA:                  -0.656
REMARK UNBOUND:                -0.582
REMARK  Name = 
REMARK  10 active torsions:
REMARK  status: ('A' for Active; 'I' for Inactive)
REMARK    1  A    between atoms: C_1  and  C_2
REMARK    2  A    between atoms: C_5  and  N_8
REMARK    3  A    between atoms: N_8  and  C_9
REMARK    4  A    between atoms: N_8  and  C_13
REMARK    5  A    between atoms: C_9  and  C_10
REMARK    6  A    between atoms: C_10  and  C_11
REMARK    7  A    between atoms: C_10  and  O_12
REMARK    8  A    between atoms: C_13  and  C_14
REMARK    9  A    between atoms: C_14  and  C_15
REMARK   10  A    between atoms: C_14  and  O_16
REMARK                            x       y       z     vdW  Elec       q    Type
REMARK                         _______ _______ _______ _____ _____    ______ ____
ROOT
ATOM      1  N   UNL     1     -18.974  11.217 -24.033  0.00  0.00    +0.000 N 
ENDROOT
BRANCH   1   6
ATOM      2  C   UNL     1     -19.075  16.918 -24.934  0.00  0.00    +0.000 C 
ATOM      3  C   UNL     1     -19.056  15.435 -24.723  0.00  0.00    +0.000 A 
ATOM      4  C   UNL     1     -20.176  14.768 -24.239  0.00  0.00    +0.000 A 
ATOM      5  C   UNL     1     -20.143  13.382 -24.016  0.00  0.00    +0.000 A 
ATOM      6  C   UNL     1     -18.994  12.602 -24.239  0.00  0.00    +0.000 A 
ATOM      7  C   UNL     1     -17.881  13.309 -24.731  0.00  0.00    +0.000 A 
ATOM      8  C   UNL     1     -17.901  14.694 -24.961  0.00  0.00    +0.000 A 
ENDBRANCH   1   6
BRANCH   1   9
ATOM      9  C   UNL     1     -19.711  10.317 -24.953  0.00  0.00    +0.000 C 
BRANCH   9  10
ATOM     10  C   UNL     1     -18.780   9.336 -25.706  0.00  0.00    +0.000 C 
ATOM     11  C   UNL     1     -19.503   8.693 -26.883  0.00  0.00    +0.000 C 
BRANCH  10  12
ATOM     12  O   UNL     1     -17.620  10.012 -26.213  0.00  0.00    +0.000 OA
ATOM     13  H   UNL     1     -16.852   9.431 -26.084  0.00  0.00    +0.000 HD
ENDBRANCH  10  12
ENDBRANCH   9  10
ENDBRANCH   1   9
BRANCH   1  14
ATOM     14  C   UNL     1     -18.692  10.643 -22.692  0.00  0.00    +0.000 C 
BRANCH  14  15
ATOM     15  C   UNL     1     -17.176  10.593 -22.385  0.00  0.00    +0.000 C 
ATOM     16  C   UNL     1     -16.796   9.474 -21.422  0.00  0.00    +0.000 C 
BRANCH  15  17
ATOM     17  O   UNL     1     -16.402  10.434 -23.574  0.00  0.00    +0.000 OA
ATOM     18  H   UNL     1     -16.157  11.343 -23.839  0.00  0.00    +0.000 HD
ENDBRANCH  15  17
ENDBRANCH  14  15
ENDBRANCH   1  14
TORSDOF 7
ENDMDL
MODEL 4
REMARK VINA RESULT:    -3.794      2.385      3.720
REMARK INTER + INTRA:          -5.707
REMARK INTER:                  -5.410
REMARK INTRA:                  -0.297
REMARK UNBOUND:                -0.582
REMARK  Name = 
REMARK  10 active torsions:
REMARK  status: ('A' for Active; 'I' for Inactive)
REMARK    1  A    between atoms: C_1  and  C_2
REMARK    2  A    between atoms: C_5  and  N_8
REMARK    3  A    between atoms: N_8  and  C_9
REMARK    4  A    between atoms: N_8  and  C_13
REMARK    5  A    between atoms: C_9  and  C_10
REMARK    6  A    between atoms: C_10  and  C_11
REMARK    7  A    between atoms: C_10  and  O_12
REMARK    8  A    between atoms: C_13  and  C_14
REMARK    9  A    between atoms: C_14  and  C_15
REMARK   10  A    between atoms: C_14  and  O_16
REMARK                            x       y       z     vdW  Elec       q    Type
REMARK                         _______ _______ _______ _____ _____    ______ ____
ROOT
ATOM      1  N   UNL     1     -16.321  10.608 -25.966  0.00  0.00    +0.000 N 
ENDROOT
BRANCH   1   6
ATOM      2  C   UNL     1     -19.779  13.006 -22.014  0.00  0.00    +0.000 C 
ATOM      3  C   UNL     1     -18.900  12.384 -23.056  0.00  0.00    +0.000 A 
ATOM      4  C   UNL     1     -18.776  11.002 -23.153  0.00  0.00    +0.000 A 
ATOM      5  C   UNL     1     -17.928  10.425 -24.112  0.00  0.00    +0.000 A 
ATOM      6  C   UNL     1     -17.150  11.190 -25.000  0.00  0.00    +0.000 A 
ATOM      7  C   UNL     1     -17.303  12.583 -24.875  0.00  0.00    +0.000 A 
ATOM      8  C   UNL     1     -18.149  13.173 -23.922  0.00  0.00    +0.000 A 
ENDBRANCH   1   6
BRANCH   1   9
ATOM      9  C   UNL     1     -14.931  11.093 -26.145  0.00  0.00    +0.000 C 
BRANCH   9  10
ATOM     10  C   UNL     1     -13.973   9.993 -26.662  0.00  0.00    +0.000 C 
ATOM     11  C   UNL     1     -13.195  10.477 -27.880  0.00  0.00    +0.000 C 
BRANCH  10  12
ATOM     12  O   UNL     1     -13.027   9.617 -25.652  0.00  0.00    +0.000 OA
ATOM     13  H   UNL     1     -12.744  10.423 -25.189  0.00  0.00    +0.000 HD
ENDBRANCH  10  12
ENDBRANCH   9  10
ENDBRANCH   1   9
BRANCH   1  14
ATOM     14  C   UNL     1     -16.890   9.899 -27.142  0.00  0.00    +0.000 C 
BRANCH  14  15
ATOM     15  C   UNL     1     -17.334   8.457 -26.797  0.00  0.00    +0.000 C 
ATOM     16  C   UNL     1     -18.764   8.152 -27.223  0.00  0.00    +0.000 C 
BRANCH  15  17
ATOM     17  O   UNL     1     -16.477   7.485 -27.394  0.00  0.00    +0.000 OA
ATOM     18  H   UNL     1     -16.406   7.754 -28.332  0.00  0.00    +0.000 HD
ENDBRANCH  15  17
ENDBRANCH  14  15
ENDBRANCH   1  14
TORSDOF 7
ENDMDL
MODEL 5
REMARK VINA RESULT:    -3.728      3.149      5.013
REMARK INTER + INTRA:          -5.617
REMARK INTER:                  -5.016
REMARK INTRA:                  -0.601
REMARK UNBOUND:                -0.582
REMARK  Name = 
REMARK  10 active torsions:
REMARK  status: ('A' for Active; 'I' for Inactive)
REMARK    1  A    between atoms: C_1  and  C_2
REMARK    2  A    between atoms: C_5  and  N_8
REMARK    3  A    between atoms: N_8  and  C_9
REMARK    4  A    between atoms: N_8  and  C_13
REMARK    5  A    between atoms: C_9  and  C_10
REMARK    6  A    between atoms: C_10  and  C_11
REMARK    7  A    between atoms: C_10  and  O_12
REMARK    8  A    between atoms: C_13  and  C_14
REMARK    9  A    between atoms: C_14  and  C_15
REMARK   10  A    between atoms: C_14  and  O_16
REMARK                            x       y       z     vdW  Elec       q    Type
REMARK                         _______ _______ _______ _____ _____    ______ ____
ROOT
ATOM      1  N   UNL     1     -16.770  10.662 -26.049  0.00  0.00    +0.000 N 
ENDROOT
BRANCH   1   6
ATOM      2  C   UNL     1     -19.437  10.849 -20.933  0.00  0.00    +0.000 C 
ATOM      3  C   UNL     1     -18.740  10.825 -22.258  0.00  0.00    +0.000 A 
ATOM      4  C   UNL     1     -19.444  11.031 -23.440  0.00  0.00    +0.000 A 
ATOM      5  C   UNL     1     -18.791  10.977 -24.682  0.00  0.00    +0.000 A 
ATOM      6  C   UNL     1     -17.419  10.694 -24.809  0.00  0.00    +0.000 A 
ATOM      7  C   UNL     1     -16.738  10.493 -23.594  0.00  0.00    +0.000 A 
ATOM      8  C   UNL     1     -17.379  10.546 -22.345  0.00  0.00    +0.000 A 
ENDBRANCH   1   6
BRANCH   1   9
ATOM      9  C   UNL     1     -17.286   9.795 -27.136  0.00  0.00    +0.000 C 
BRANCH   9  10
ATOM     10  C   UNL     1     -17.554   8.343 -26.669  0.00  0.00    +0.000 C 
ATOM     11  C   UNL     1     -18.969   7.906 -27.032  0.00  0.00    +0.000 C 
BRANCH  10  12
ATOM     12  O   UNL     1     -16.636   7.428 -27.282  0.00  0.00    +0.000 OA
ATOM     13  H   UNL     1     -15.775   7.871 -27.360  0.00  0.00    +0.000 HD
ENDBRANCH  10  12
ENDBRANCH   9  10
ENDBRANCH   1   9
BRANCH   1  14
ATOM     14  C   UNL     1     -15.339  11.040 -26.179  0.00  0.00    +0.000 C 
BRANCH  14  15
ATOM     15  C   UNL     1     -14.619  10.230 -27.283  0.00  0.00    +0.000 C 
ATOM     16  C   UNL     1     -13.508  11.013 -27.973  0.00  0.00    +0.000 C 
BRANCH  15  17
ATOM     17  O   UNL     1     -14.056   9.023 -26.770  0.00  0.00    +0.000 OA
ATOM     18  H   UNL     1     -14.710   8.695 -26.121  0.00  0.00    +0.000 HD
ENDBRANCH  15  17
ENDBRANCH  14  15
ENDBRANCH   1  14
TORSDOF 7
ENDMDL
MODEL 6
REMARK VINA RESULT:    -3.623     16.767     18.229
REMARK INTER + INTRA:          -5.476
REMARK INTER:                  -5.131
REMARK INTRA:                  -0.346
REMARK UNBOUND:                -0.582
REMARK  Name = 
REMARK  10 active torsions:
REMARK  status: ('A' for Active; 'I' for Inactive)
REMARK    1  A    between atoms: C_1  and  C_2
REMARK    2  A    between atoms: C_5  and  N_8
REMARK    3  A    between atoms: N_8  and  C_9
REMARK    4  A    between atoms: N_8  and  C_13
REMARK    5  A    between atoms: C_9  and  C_10
REMARK    6  A    between atoms: C_10  and  C_11
REMARK    7  A    between atoms: C_10  and  O_12
REMARK    8  A    between atoms: C_13  and  C_14
REMARK    9  A    between atoms: C_14  and  C_15
REMARK   10  A    between atoms: C_14  and  O_16
REMARK                            x       y       z     vdW  Elec       q    Type
REMARK                         _______ _______ _______ _____ _____    ______ ____
ROOT
ATOM      1  N   UNL     1     -16.911  15.201  -7.438  0.00  0.00    +0.000 N 
ENDROOT
BRANCH   1   6
ATOM      2  C   UNL     1     -11.428  16.627  -6.327  0.00  0.00    +0.000 C 
ATOM      3  C   UNL     1     -12.843  16.240  -6.632  0.00  0.00    +0.000 A 
ATOM      4  C   UNL     1     -13.558  16.879  -7.639  0.00  0.00    +0.000 A 
ATOM      5  C   UNL     1     -14.893  16.532  -7.900  0.00  0.00    +0.000 A 
ATOM      6  C   UNL     1     -15.585  15.556  -7.160  0.00  0.00    +0.000 A 
ATOM      7  C   UNL     1     -14.831  14.929  -6.151  0.00  0.00    +0.000 A 
ATOM      8  C   UNL     1     -13.494  15.265  -5.881  0.00  0.00    +0.000 A 
ENDBRANCH   1   6
BRANCH   1   9
ATOM      9  C   UNL     1     -17.206  13.949  -8.175  0.00  0.00    +0.000 C 
BRANCH   9  10
ATOM     10  C   UNL     1     -16.944  12.679  -7.330  0.00  0.00    +0.000 C 
ATOM     11  C   UNL     1     -17.817  12.665  -6.081  0.00  0.00    +0.000 C 
BRANCH  10  12
ATOM     12  O   UNL     1     -17.227  11.491  -8.083  0.00  0.00    +0.000 OA
ATOM     13  H   UNL     1     -17.393  11.752  -9.004  0.00  0.00    +0.000 HD
ENDBRANCH  10  12
ENDBRANCH   9  10
ENDBRANCH   1   9
BRANCH   1  14
ATOM     14  C   UNL     1     -17.986  16.225  -7.491  0.00  0.00    +0.000 C 
BRANCH  14  15
ATOM     15  C   UNL     1     -19.395  15.590  -7.560  0.00  0.00    +0.000 C 
ATOM     16  C   UNL     1     -20.167  15.698  -6.251  0.00  0.00    +0.000 C 
BRANCH  15  17
ATOM     17  O   UNL     1     -20.188  16.178  -8.590  0.00  0.00    +0.000 OA
ATOM     18  H   UNL     1     -19.555  16.681  -9.141  0.00  0.00    +0.000 HD
ENDBRANCH  15  17
ENDBRANCH  14  15
ENDBRANCH   1  14
TORSDOF 7
ENDMDL
MODEL 7
REMARK VINA RESULT:    -3.603      2.949      5.591
REMARK INTER + INTRA:          -5.449
REMARK INTER:                  -4.874
REMARK INTRA:                  -0.575
REMARK UNBOUND:                -0.582
REMARK  Name = 
REMARK  10 active torsions:
REMARK  status: ('A' for Active; 'I' for Inactive)
REMARK    1  A    between atoms: C_1  and  C_2
REMARK    2  A    between atoms: C_5  and  N_8
REMARK    3  A    between atoms: N_8  and  C_9
REMARK    4  A    between atoms: N_8  and  C_13
REMARK    5  A    between atoms: C_9  and  C_10
REMARK    6  A    between atoms: C_10  and  C_11
REMARK    7  A    between atoms: C_10  and  O_12
REMARK    8  A    between atoms: C_13  and  C_14
REMARK    9  A    between atoms: C_14  and  C_15
REMARK   10  A    between atoms: C_14  and  O_16
REMARK                            x       y       z     vdW  Elec       q    Type
REMARK                         _______ _______ _______ _____ _____    ______ ____
ROOT
ATOM      1  N   UNL     1     -15.200  10.865 -27.132  0.00  0.00    +0.000 N 
ENDROOT
BRANCH   1   6
ATOM      2  C   UNL     1     -19.729   7.299 -26.817  0.00  0.00    +0.000 C 
ATOM      3  C   UNL     1     -18.568   8.240 -26.913  0.00  0.00    +0.000 A 
ATOM      4  C   UNL     1     -17.607   8.090 -27.907  0.00  0.00    +0.000 A 
ATOM      5  C   UNL     1     -16.504   8.956 -27.974  0.00  0.00    +0.000 A 
ATOM      6  C   UNL     1     -16.293   9.993 -27.047  0.00  0.00    +0.000 A 
ATOM      7  C   UNL     1     -17.284  10.117 -26.057  0.00  0.00    +0.000 A 
ATOM      8  C   UNL     1     -18.394   9.258 -25.980  0.00  0.00    +0.000 A 
ENDBRANCH   1   6
BRANCH   1   9
ATOM      9  C   UNL     1     -15.422  12.331 -27.178  0.00  0.00    +0.000 C 
BRANCH   9  10
ATOM     10  C   UNL     1     -15.216  13.012 -25.803  0.00  0.00    +0.000 C 
ATOM     11  C   UNL     1     -16.462  13.786 -25.387  0.00  0.00    +0.000 C 
BRANCH  10  12
ATOM     12  O   UNL     1     -14.935  12.042 -24.785  0.00  0.00    +0.000 OA
ATOM     13  H   UNL     1     -14.002  11.784 -24.865  0.00  0.00    +0.000 HD
ENDBRANCH  10  12
ENDBRANCH   9  10
ENDBRANCH   1   9
BRANCH   1  14
ATOM     14  C   UNL     1     -13.896  10.413 -27.679  0.00  0.00    +0.000 C 
BRANCH  14  15
ATOM     15  C   UNL     1     -13.131   9.501 -26.690  0.00  0.00    +0.000 C 
ATOM     16  C   UNL     1     -11.621   9.534 -26.888  0.00  0.00    +0.000 C 
BRANCH  15  17
ATOM     17  O   UNL     1     -13.407   9.847 -25.333  0.00  0.00    +0.000 OA
ATOM     18  H   UNL     1     -13.674   9.008 -24.908  0.00  0.00    +0.000 HD
ENDBRANCH  15  17
ENDBRANCH  14  15
ENDBRANCH   1  14
TORSDOF 7
ENDMDL
MODEL 8
REMARK VINA RESULT:    -3.547      2.394      3.706
REMARK INTER + INTRA:          -5.373
REMARK INTER:                  -4.733
REMARK INTRA:                  -0.640
REMARK UNBOUND:                -0.582
REMARK  Name = 
REMARK  10 active torsions:
REMARK  status: ('A' for Active; 'I' for Inactive)
REMARK    1  A    between atoms: C_1  and  C_2
REMARK    2  A    between atoms: C_5  and  N_8
REMARK    3  A    between atoms: N_8  and  C_9
REMARK    4  A    between atoms: N_8  and  C_13
REMARK    5  A    between atoms: C_9  and  C_10
REMARK    6  A    between atoms: C_10  and  C_11
REMARK    7  A    between atoms: C_10  and  O_12
REMARK    8  A    between atoms: C_13  and  C_14
REMARK    9  A    between atoms: C_14  and  C_15
REMARK   10  A    between atoms: C_14  and  O_16
REMARK                            x       y       z     vdW  Elec       q    Type
REMARK                         _______ _______ _______ _____ _____    ______ ____
ROOT
ATOM      1  N   UNL     1     -19.016  10.812 -23.782  0.00  0.00    +0.000 N 
ENDROOT
BRANCH   1   6
ATOM      2  C   UNL     1     -19.072  16.415 -22.392  0.00  0.00    +0.000 C 
ATOM      3  C   UNL     1     -19.077  14.964 -22.768  0.00  0.00    +0.000 A 
ATOM      4  C   UNL     1     -19.780  14.033 -22.010  0.00  0.00    +0.000 A 
ATOM      5  C   UNL     1     -19.757  12.670 -22.350  0.00  0.00    +0.000 A 
ATOM      6  C   UNL     1     -19.019  12.169 -23.438  0.00  0.00    +0.000 A 
ATOM      7  C   UNL     1     -18.323  13.139 -24.182  0.00  0.00    +0.000 A 
ATOM      8  C   UNL     1     -18.339  14.505 -23.855  0.00  0.00    +0.000 A 
ENDBRANCH   1   6
BRANCH   1   9
ATOM      9  C   UNL     1     -18.301   9.830 -22.931  0.00  0.00    +0.000 C 
BRANCH   9  10
ATOM     10  C   UNL     1     -17.029  10.421 -22.274  0.00  0.00    +0.000 C 
ATOM     11  C   UNL     1     -16.471   9.474 -21.218  0.00  0.00    +0.000 C 
BRANCH  10  12
ATOM     12  O   UNL     1     -16.004  10.650 -23.251  0.00  0.00    +0.000 OA
ATOM     13  H   UNL     1     -15.815  11.603 -23.271  0.00  0.00    +0.000 HD
ENDBRANCH  10  12
ENDBRANCH   9  10
ENDBRANCH   1   9
BRANCH   1  14
ATOM     14  C   UNL     1     -19.246  10.373 -25.182  0.00  0.00    +0.000 C 
BRANCH  14  15
ATOM     15  C   UNL     1     -18.101   9.474 -25.709  0.00  0.00    +0.000 C 
ATOM     16  C   UNL     1     -18.512   8.614 -26.898  0.00  0.00    +0.000 C 
BRANCH  15  17
ATOM     17  O   UNL     1     -16.962  10.242 -26.092  0.00  0.00    +0.000 OA
ATOM     18  H   UNL     1     -16.731   9.923 -26.987  0.00  0.00    +0.000 HD
ENDBRANCH  15  17
ENDBRANCH  14  15
ENDBRANCH   1  14
TORSDOF 7
ENDMDL
MODEL 9
REMARK VINA RESULT:    -3.519      3.275      5.460
REMARK INTER + INTRA:          -5.335
REMARK INTER:                  -4.908
REMARK INTRA:                  -0.427
REMARK UNBOUND:                -0.582
REMARK  Name = 
REMARK  10 active torsions:
REMARK  status: ('A' for Active; 'I' for Inactive)
REMARK    1  A    between atoms: C_1  and  C_2
REMARK    2  A    between atoms: C_5  and  N_8
REMARK    3  A    between atoms: N_8  and  C_9
REMARK    4  A    between atoms: N_8  and  C_13
REMARK    5  A    between atoms: C_9  and  C_10
REMARK    6  A    between atoms: C_10  and  C_11
REMARK    7  A    between atoms: C_10  and  O_12
REMARK    8  A    between atoms: C_13  and  C_14
REMARK    9  A    between atoms: C_14  and  C_15
REMARK   10  A    between atoms: C_14  and  O_16
REMARK                            x       y       z     vdW  Elec       q    Type
REMARK                         _______ _______ _______ _____ _____    ______ ____
ROOT
ATOM      1  N   UNL     1     -18.864  14.174 -24.575  0.00  0.00    +0.000 N 
ENDROOT
BRANCH   1   6
ATOM      2  C   UNL     1     -17.170   9.449 -21.723  0.00  0.00    +0.000 C 
ATOM      3  C   UNL     1     -17.617  10.660 -22.483  0.00  0.00    +0.000 A 
ATOM      4  C   UNL     1     -16.728  11.368 -23.285  0.00  0.00    +0.000 A 
ATOM      5  C   UNL     1     -17.144  12.521 -23.971  0.00  0.00    +0.000 A 
ATOM      6  C   UNL     1     -18.450  13.035 -23.873  0.00  0.00    +0.000 A 
ATOM      7  C   UNL     1     -19.322  12.293 -23.055  0.00  0.00    +0.000 A 
ATOM      8  C   UNL     1     -18.919  11.137 -22.366  0.00  0.00    +0.000 A 
ENDBRANCH   1   6
BRANCH   1   9
ATOM      9  C   UNL     1     -18.074  14.662 -25.732  0.00  0.00    +0.000 C 
BRANCH   9  10
ATOM     10  C   UNL     1     -18.561  16.036 -26.254  0.00  0.00    +0.000 C 
ATOM     11  C   UNL     1     -17.382  16.919 -26.646  0.00  0.00    +0.000 C 
BRANCH  10  12
ATOM     12  O   UNL     1     -19.402  15.880 -27.405  0.00  0.00    +0.000 OA
ATOM     13  H   UNL     1     -19.634  14.940 -27.484  0.00  0.00    +0.000 HD
ENDBRANCH  10  12
ENDBRANCH   9  10
ENDBRANCH   1   9
BRANCH   1  14
ATOM     14  C   UNL     1     -19.736  15.194 -23.940  0.00  0.00    +0.000 C 
BRANCH  14  15
ATOM     15  C   UNL     1     -19.163  15.695 -22.593  0.00  0.00    +0.000 C 
ATOM     16  C   UNL     1     -18.101  16.776 -22.758  0.00  0.00    +0.000 C 
BRANCH  15  17
ATOM     17  O   UNL     1     -20.188  16.209 -21.743  0.00  0.00    +0.000 OA
ATOM     18  H   UNL     1     -19.720  16.514 -20.939  0.00  0.00    +0.000 HD
ENDBRANCH  15  17
ENDBRANCH  14  15
ENDBRANCH   1  14
TORSDOF 7
ENDMDL
