MODEL 1
REMARK VINA RESULT:    -3.382      0.000      0.000
REMARK INTER + INTRA:          -3.725
REMARK INTER:                  -3.678
REMARK INTRA:                  -0.047
REMARK UNBOUND:                -0.047
REMARK  Name = 
REMARK  3 active torsions:
REMARK  status: ('A' for Active; 'I' for Inactive)
REMARK    1  A    between atoms: C_1  and  O_2
REMARK    2  A    between atoms: O_2  and  C_3
REMARK    3  A    between atoms: C_8  and  O_9
REMARK                            x       y       z     vdW  Elec       q    Type
REMARK                         _______ _______ _______ _____ _____    ______ ____
ROOT
ATOM      1  C   UNL     1     -16.832  11.237 -23.251  0.00  0.00    +0.000 A 
ATOM      2  C   UNL     1     -18.017  11.905 -23.559  0.00  0.00    +0.000 A 
ATOM      3  C   UNL     1     -19.196  11.589 -22.871  0.00  0.00    +0.000 A 
ATOM      4  C   UNL     1     -19.196  10.608 -21.878  0.00  0.00    +0.000 A 
ATOM      5  C   UNL     1     -18.016   9.938 -21.565  0.00  0.00    +0.000 A 
ATOM      6  C   UNL     1     -16.851  10.257 -22.251  0.00  0.00    +0.000 A 
ENDROOT
BRANCH   1   8
ATOM      7  C   UNL     1     -15.596  11.524 -25.260  0.00  0.00    +0.000 C 
ATOM      8  O   UNL     1     -15.610  11.442 -23.840  0.00  0.00    +0.000 OA
ENDBRANCH   1   8
BRANCH   6   9
ATOM      9  O   UNL     1     -15.704   9.584 -21.926  0.00  0.00    +0.000 OA
ATOM     10  H   UNL     1     -15.909   8.645 -22.097  0.00  0.00    +0.000 HD
ENDBRANCH   6   9
TORSDOF 2
ENDMDL
MODEL 2
REMARK VINA RESULT:    -3.144      1.457      3.145
REMARK INTER + INTRA:          -3.466
REMARK INTER:                  -3.417
REMARK INTRA:                  -0.050
REMARK UNBOUND:                -0.047
REMARK  Name = 
REMARK  3 active torsions:
REMARK  status: ('A' for Active; 'I' for Inactive)
REMARK    1  A    between atoms: C_1  and  O_2
REMARK    2  A    between atoms: O_2  and  C_3
REMARK    3  A    between atoms: C_8  and  O_9
REMARK                            x       y       z     vdW  Elec       q    Type
REMARK                         _______ _______ _______ _____ _____    ______ ____
ROOT
ATOM      1  C   UNL     1     -18.160  11.034 -22.549  0.00  0.00    +0.000 A 
ATOM      2  C   UNL     1     -18.823  12.015 -23.285  0.00  0.00    +0.000 A 
ATOM      3  C   UNL     1     -18.131  12.748 -24.258  0.00  0.00    +0.000 A 
ATOM      4  C   UNL     1     -16.777  12.504 -24.498  0.00  0.00    +0.000 A 
ATOM      5  C   UNL     1     -16.108  11.525 -23.767  0.00  0.00    +0.000 A 
ATOM      6  C   UNL     1     -16.802  10.803 -22.804  0.00  0.00    +0.000 A 
ENDROOT
BRANCH   1   8
ATOM      7  C   UNL     1     -19.369  10.921 -20.507  0.00  0.00    +0.000 C 
ATOM      8  O   UNL     1     -18.708  10.245 -21.570  0.00  0.00    +0.000 OA
ENDBRANCH   1   8
BRANCH   6   9
ATOM      9  O   UNL     1     -16.123   9.846 -22.098  0.00  0.00    +0.000 OA
ATOM     10  H   UNL     1     -15.671   9.310 -22.778  0.00  0.00    +0.000 HD
ENDBRANCH   6   9
TORSDOF 2
ENDMDL
MODEL 3
REMARK VINA RESULT:    -3.127     17.008     17.206
REMARK INTER + INTRA:          -3.448
REMARK INTER:                  -3.403
REMARK INTRA:                  -0.044
REMARK UNBOUND:                -0.047
REMARK  Name = 
REMARK  3 active torsions:
REMARK  status: ('A' for Active; 'I' for Inactive)
REMARK    1  A    between atoms: C_1  and  O_2
REMARK    2  A    between atoms: O_2  and  C_3
REMARK    3  A    between atoms: C_8  and  O_9
REMARK                            x       y       z     vdW  Elec       q    Type
REMARK                         _______ _______ _______ _____ _____    ______ ____
ROOT
ATOM      1  C   UNL     1     -15.588  14.160  -5.941  0.00  0.00    +0.000 A 
ATOM      2  C   UNL     1     -16.756  14.915  -5.850  0.00  0.00    +0.000 A 
ATOM      3  C   UNL     1     -18.003  14.278  -5.851  0.00  0.00    +0.000 A 
ATOM      4  C   UNL     1     -18.088  12.888  -5.945  0.00  0.00    +0.000 A 
ATOM      5  C   UNL     1     -16.925  12.126  -6.037  0.00  0.00    +0.000 A 
ATOM      6  C   UNL     1     -15.692  12.766  -6.035  0.00  0.00    +0.000 A 
ENDROOT
BRANCH   1   8
ATOM      7  C   UNL     1     -14.085  15.836  -6.701  0.00  0.00    +0.000 C 
ATOM      8  O   UNL     1     -14.305  14.647  -5.952  0.00  0.00    +0.000 OA
ENDBRANCH   1   8
BRANCH   6   9
ATOM      9  O   UNL     1     -14.564  11.997  -6.126  0.00  0.00    +0.000 OA
ATOM     10  H   UNL     1     -14.600  11.409  -5.348  0.00  0.00    +0.000 HD
ENDBRANCH   6   9
TORSDOF 2
ENDMDL
MODEL 4
REMARK VINA RESULT:    -3.098      1.555      3.207
REMARK INTER + INTRA:          -3.416
REMARK INTER:                  -3.365
REMARK INTRA:                  -0.052
REMARK UNBOUND:                -0.047
REMARK  Name = 
REMARK  3 active torsions:
REMARK  status: ('A' for Active; 'I' for Inactive)
REMARK    1  A    between atoms: C_1  and  O_2
REMARK    2  A    between atoms: O_2  and  C_3
REMARK    3  A    between atoms: C_8  and  O_9
REMARK                            x       y       z     vdW  Elec       q    Type
REMARK                         _______ _______ _______ _____ _____    ______ ____
ROOT
ATOM      1  C   UNL     1     -17.884  11.405 -23.223  0.00  0.00    +0.000 A 
ATOM      2  C   UNL     1     -18.598  12.444 -23.818  0.00  0.00    +0.000 A 
ATOM      3  C   UNL     1     -17.918  13.455 -24.509  0.00  0.00    +0.000 A 
ATOM      4  C   UNL     1     -16.526  13.433 -24.606  0.00  0.00    +0.000 A 
ATOM      5  C   UNL     1     -15.805  12.398 -24.014  0.00  0.00    +0.000 A 
ATOM      6  C   UNL     1     -16.488  11.400 -23.331  0.00  0.00    +0.000 A 
ENDROOT
BRANCH   1   8
ATOM      7  C   UNL     1     -19.184  10.685 -21.369  0.00  0.00    +0.000 C 
ATOM      8  O   UNL     1     -18.415  10.355 -22.519  0.00  0.00    +0.000 OA
ENDBRANCH   1   8
BRANCH   6   9
ATOM      9  O   UNL     1     -15.757  10.393 -22.758  0.00  0.00    +0.000 OA
ATOM     10  H   UNL     1     -16.162   9.571 -23.093  0.00  0.00    +0.000 HD
ENDBRANCH   6   9
TORSDOF 2
ENDMDL
MODEL 5
REMARK VINA RESULT:    -2.991      3.151      4.281
REMARK INTER + INTRA:          -3.300
REMARK INTER:                  -3.260
REMARK INTRA:                  -0.040
REMARK UNBOUND:                -0.047
REMARK  Name = 
REMARK  3 active torsions:
REMARK  status: ('A' for Active; 'I' for Inactive)
REMARK    1  A    between atoms: C_1  and  O_2
REMARK    2  A    between atoms: O_2  and  C_3
REMARK    3  A    between atoms: C_8  and  O_9
REMARK                            x       y       z     vdW  Elec       q    Type
REMARK                         _______ _______ _______ _____ _____    ______ ____
ROOT
ATOM      1  C   UNL     1     -19.452  12.403 -22.421  0.00  0.00    +0.000 A 
ATOM      2  C   UNL     1     -19.201  12.398 -23.792  0.00  0.00    +0.000 A 
ATOM      3  C   UNL     1     -19.436  13.552 -24.550  0.00  0.00    +0.000 A 
ATOM      4  C   UNL     1     -19.922  14.711 -23.943  0.00  0.00    +0.000 A 
ATOM      5  C   UNL     1     -20.175  14.724 -22.573  0.00  0.00    +0.000 A 
ATOM      6  C   UNL     1     -19.939  13.575 -21.829  0.00  0.00    +0.000 A 
ENDROOT
BRANCH   1   8
ATOM      7  C   UNL     1     -18.269  10.404 -21.916  0.00  0.00    +0.000 C 
ATOM      8  O   UNL     1     -19.269  11.351 -21.559  0.00  0.00    +0.000 OA
ENDBRANCH   1   8
BRANCH   6   9
ATOM      9  O   UNL     1     -20.196  13.611 -20.485  0.00  0.00    +0.000 OA
ATOM     10  H   UNL     1     -19.349  13.876 -20.077  0.00  0.00    +0.000 HD
ENDBRANCH   6   9
TORSDOF 2
ENDMDL
MODEL 6
REMARK VINA RESULT:    -2.947      1.184      1.630
REMARK INTER + INTRA:          -3.252
REMARK INTER:                  -3.200
REMARK INTRA:                  -0.053
REMARK UNBOUND:                -0.047
REMARK  Name = 
REMARK  3 active torsions:
REMARK  status: ('A' for Active; 'I' for Inactive)
REMARK    1  A    between atoms: C_1  and  O_2
REMARK    2  A    between atoms: O_2  and  C_3
REMARK    3  A    between atoms: C_8  and  O_9
REMARK                            x       y       z     vdW  Elec       q    Type
REMARK                         _______ _______ _______ _____ _____    ______ ____
ROOT
ATOM      1  C   UNL     1     -17.600  11.929 -23.579  0.00  0.00    +0.000 A 
ATOM      2  C   UNL     1     -18.896  12.017 -23.074  0.00  0.00    +0.000 A 
ATOM      3  C   UNL     1     -19.316  11.137 -22.068  0.00  0.00    +0.000 A 
ATOM      4  C   UNL     1     -18.446  10.168 -21.567  0.00  0.00    +0.000 A 
ATOM      5  C   UNL     1     -17.149  10.074 -22.067  0.00  0.00    +0.000 A 
ATOM      6  C   UNL     1     -16.741  10.951 -23.064  0.00  0.00    +0.000 A 
ENDROOT
BRANCH   1   8
ATOM      7  C   UNL     1     -16.889  14.097 -24.243  0.00  0.00    +0.000 C 
ATOM      8  O   UNL     1     -17.057  12.721 -24.559  0.00  0.00    +0.000 OA
ENDBRANCH   1   8
BRANCH   6   9
ATOM      9  O   UNL     1     -15.462  10.839 -23.539  0.00  0.00    +0.000 OA
ATOM     10  H   UNL     1     -15.156   9.966 -23.228  0.00  0.00    +0.000 HD
ENDBRANCH   6   9
TORSDOF 2
ENDMDL
MODEL 7
REMARK VINA RESULT:    -2.947      9.807     10.699
REMARK INTER + INTRA:          -3.252
REMARK INTER:                  -3.214
REMARK INTRA:                  -0.038
REMARK UNBOUND:                -0.047
REMARK  Name = 
REMARK  3 active torsions:
REMARK  status: ('A' for Active; 'I' for Inactive)
REMARK    1  A    between atoms: C_1  and  O_2
REMARK    2  A    between atoms: O_2  and  C_3
REMARK    3  A    between atoms: C_8  and  O_9
REMARK                            x       y       z     vdW  Elec       q    Type
REMARK                         _______ _______ _______ _____ _____    ______ ____
ROOT
ATOM      1  C   UNL     1     -18.025  15.002 -12.924  0.00  0.00    +0.000 A 
ATOM      2  C   UNL     1     -18.284  16.334 -13.243  0.00  0.00    +0.000 A 
ATOM      3  C   UNL     1     -18.767  16.668 -14.514  0.00  0.00    +0.000 A 
ATOM      4  C   UNL     1     -18.989  15.675 -15.470  0.00  0.00    +0.000 A 
ATOM      5  C   UNL     1     -18.733  14.342 -15.159  0.00  0.00    +0.000 A 
ATOM      6  C   UNL     1     -18.254  14.020 -13.895  0.00  0.00    +0.000 A 
ENDROOT
BRANCH   1   8
ATOM      7  C   UNL     1     -17.150  15.511 -10.774  0.00  0.00    +0.000 C 
ATOM      8  O   UNL     1     -17.552  14.533 -11.725  0.00  0.00    +0.000 OA
ENDBRANCH   1   8
BRANCH   6   9
ATOM      9  O   UNL     1     -18.009  12.703 -13.613  0.00  0.00    +0.000 OA
ATOM     10  H   UNL     1     -18.586  12.500 -12.852  0.00  0.00    +0.000 HD
ENDBRANCH   6   9
TORSDOF 2
ENDMDL
MODEL 8
REMARK VINA RESULT:    -2.919      2.667      4.217
REMARK INTER + INTRA:          -3.222
REMARK INTER:                  -3.175
REMARK INTRA:                  -0.047
REMARK UNBOUND:                -0.047
REMARK  Name = 
REMARK  3 active torsions:
REMARK  status: ('A' for Active; 'I' for Inactive)
REMARK    1  A    between atoms: C_1  and  O_2
REMARK    2  A    between atoms: O_2  and  C_3
REMARK    3  A    between atoms: C_8  and  O_9
REMARK                            x       y       z     vdW  Elec       q    Type
REMARK                         _______ _______ _______ _____ _____    ______ ____
ROOT
ATOM      1  C   UNL     1     -19.515  12.401 -22.894  0.00  0.00    +0.000 A 
ATOM      2  C   UNL     1     -19.917  13.435 -22.050  0.00  0.00    +0.000 A 
ATOM      3  C   UNL     1     -19.806  14.766 -22.473  0.00  0.00    +0.000 A 
ATOM      4  C   UNL     1     -19.294  15.067 -23.736  0.00  0.00    +0.000 A 
ATOM      5  C   UNL     1     -18.891  14.039 -24.585  0.00  0.00    +0.000 A 
ATOM      6  C   UNL     1     -19.004  12.722 -24.158  0.00  0.00    +0.000 A 
ENDROOT
BRANCH   1   8
ATOM      7  C   UNL     1     -19.081  10.659 -21.337  0.00  0.00    +0.000 C 
ATOM      8  O   UNL     1     -19.565  11.059 -22.613  0.00  0.00    +0.000 OA
ENDBRANCH   1   8
BRANCH   6   9
ATOM      9  O   UNL     1     -18.601  11.729 -25.010  0.00  0.00    +0.000 OA
ATOM     10  H   UNL     1     -19.201  11.801 -25.776  0.00  0.00    +0.000 HD
ENDBRANCH   6   9
TORSDOF 2
ENDMDL
MODEL 9
REMARK VINA RESULT:    -2.404      6.540      8.570
REMARK INTER + INTRA:          -2.662
REMARK INTER:                  -2.617
REMARK INTRA:                  -0.045
REMARK UNBOUND:                -0.047
REMARK  Name = 
REMARK  3 active torsions:
REMARK  status: ('A' for Active; 'I' for Inactive)
REMARK    1  A    between atoms: C_1  and  O_2
REMARK    2  A    between atoms: O_2  and  C_3
REMARK    3  A    between atoms: C_8  and  O_9
REMARK                            x       y       z     vdW  Elec       q    Type
REMARK                         _______ _______ _______ _____ _____    ______ ____
ROOT
ATOM      1  C   UNL     1     -10.561  10.190 -26.843  0.00  0.00    +0.000 A 
ATOM      2  C   UNL     1     -10.273  10.970 -27.962  0.00  0.00    +0.000 A 
ATOM      3  C   UNL     1      -9.129  11.779 -27.975  0.00  0.00    +0.000 A 
ATOM      4  C   UNL     1      -8.273  11.811 -26.872  0.00  0.00    +0.000 A 
ATOM      5  C   UNL     1      -8.554  11.034 -25.751  0.00  0.00    +0.000 A 
ATOM      6  C   UNL     1      -9.691  10.236 -25.747  0.00  0.00    +0.000 A 
ENDROOT
BRANCH   1   8
ATOM      7  C   UNL     1     -12.890   9.844 -27.167  0.00  0.00    +0.000 C 
ATOM      8  O   UNL     1     -11.640   9.357 -26.692  0.00  0.00    +0.000 OA
ENDBRANCH   1   8
BRANCH   6   9
ATOM      9  O   UNL     1      -9.947   9.481 -24.633  0.00  0.00    +0.000 OA
ATOM     10  H   UNL     1      -9.287   8.763 -24.663  0.00  0.00    +0.000 HD
ENDBRANCH   6   9
TORSDOF 2
ENDMDL
