MODEL 1
REMARK VINA RESULT:    -3.377      0.000      0.000
REMARK INTER + INTRA:          -3.720
REMARK INTER:                  -3.673
REMARK INTRA:                  -0.047
REMARK UNBOUND:                -0.047
REMARK  Name = 
REMARK  3 active torsions:
REMARK  status: ('A' for Active; 'I' for Inactive)
REMARK    1  A    between atoms: C_1  and  O_2
REMARK    2  A    between atoms: O_2  and  C_3
REMARK    3  A    between atoms: C_8  and  O_9
REMARK                            x       y       z     vdW  Elec       q    Type
REMARK                         _______ _______ _______ _____ _____    ______ ____
ROOT
ATOM      1  C   UNL     1     -16.848  11.230 -23.290  0.00  0.00    +0.000 A 
ATOM      2  C   UNL     1     -18.049  11.874 -23.588  0.00  0.00    +0.000 A 
ATOM      3  C   UNL     1     -19.211  11.552 -22.875  0.00  0.00    +0.000 A 
ATOM      4  C   UNL     1     -19.178  10.589 -21.866  0.00  0.00    +0.000 A 
ATOM      5  C   UNL     1     -17.983   9.942 -21.562  0.00  0.00    +0.000 A 
ATOM      6  C   UNL     1     -16.835  10.267 -22.274  0.00  0.00    +0.000 A 
ENDROOT
BRANCH   1   8
ATOM      7  C   UNL     1     -15.648  11.481 -25.325  0.00  0.00    +0.000 C 
ATOM      8  O   UNL     1     -15.640  11.443 -23.903  0.00  0.00    +0.000 OA
ENDBRANCH   1   8
BRANCH   6   9
ATOM      9  O   UNL     1     -15.672   9.617 -21.957  0.00  0.00    +0.000 OA
ATOM     10  H   UNL     1     -15.952   8.718 -21.700  0.00  0.00    +0.000 HD
ENDBRANCH   6   9
TORSDOF 2
ENDMDL
MODEL 2
REMARK VINA RESULT:    -3.152      1.459      3.144
REMARK INTER + INTRA:          -3.475
REMARK INTER:                  -3.427
REMARK INTRA:                  -0.048
REMARK UNBOUND:                -0.047
REMARK  Name = 
REMARK  3 active torsions:
REMARK  status: ('A' for Active; 'I' for Inactive)
REMARK    1  A    between atoms: C_1  and  O_2
REMARK    2  A    between atoms: O_2  and  C_3
REMARK    3  A    between atoms: C_8  and  O_9
REMARK                            x       y       z     vdW  Elec       q    Type
REMARK                         _______ _______ _______ _____ _____    ______ ____
ROOT
ATOM      1  C   UNL     1     -18.075  11.054 -22.541  0.00  0.00    +0.000 A 
ATOM      2  C   UNL     1     -18.752  12.048 -23.246  0.00  0.00    +0.000 A 
ATOM      3  C   UNL     1     -18.079  12.801 -24.215  0.00  0.00    +0.000 A 
ATOM      4  C   UNL     1     -16.728  12.566 -24.482  0.00  0.00    +0.000 A 
ATOM      5  C   UNL     1     -16.045  11.575 -23.782  0.00  0.00    +0.000 A 
ATOM      6  C   UNL     1     -16.721  10.832 -22.822  0.00  0.00    +0.000 A 
ENDROOT
BRANCH   1   8
ATOM      7  C   UNL     1     -19.346  10.889 -20.540  0.00  0.00    +0.000 C 
ATOM      8  O   UNL     1     -18.605  10.244 -21.569  0.00  0.00    +0.000 OA
ENDBRANCH   1   8
BRANCH   6   9
ATOM      9  O   UNL     1     -16.028   9.864 -22.147  0.00  0.00    +0.000 OA
ATOM     10  H   UNL     1     -16.716   9.309 -21.733  0.00  0.00    +0.000 HD
ENDBRANCH   6   9
TORSDOF 2
ENDMDL
MODEL 3
REMARK VINA RESULT:    -3.141     15.432     16.627
REMARK INTER + INTRA:          -3.463
REMARK INTER:                  -3.413
REMARK INTRA:                  -0.050
REMARK UNBOUND:                -0.047
REMARK  Name = 
REMARK  3 active torsions:
REMARK  status: ('A' for Active; 'I' for Inactive)
REMARK    1  A    between atoms: C_1  and  O_2
REMARK    2  A    between atoms: O_2  and  C_3
REMARK    3  A    between atoms: C_8  and  O_9
REMARK                            x       y       z     vdW  Elec       q    Type
REMARK                         _______ _______ _______ _____ _____    ______ ____
ROOT
ATOM      1  C   UNL     1     -16.184  13.036  -6.408  0.00  0.00    +0.000 A 
ATOM      2  C   UNL     1     -15.444  14.085  -5.864  0.00  0.00    +0.000 A 
ATOM      3  C   UNL     1     -15.521  15.364  -6.430  0.00  0.00    +0.000 A 
ATOM      4  C   UNL     1     -16.335  15.598  -7.540  0.00  0.00    +0.000 A 
ATOM      5  C   UNL     1     -17.078  14.556  -8.089  0.00  0.00    +0.000 A 
ATOM      6  C   UNL     1     -16.995  13.291  -7.521  0.00  0.00    +0.000 A 
ENDROOT
BRANCH   1   8
ATOM      7  C   UNL     1     -14.947  11.086  -5.850  0.00  0.00    +0.000 C 
ATOM      8  O   UNL     1     -16.205  11.740  -5.960  0.00  0.00    +0.000 OA
ENDBRANCH   1   8
BRANCH   6   9
ATOM      9  O   UNL     1     -17.735  12.282  -8.079  0.00  0.00    +0.000 OA
ATOM     10  H   UNL     1     -17.815  11.613  -7.373  0.00  0.00    +0.000 HD
ENDBRANCH   6   9
TORSDOF 2
ENDMDL
MODEL 4
REMARK VINA RESULT:    -2.985      3.362      4.400
REMARK INTER + INTRA:          -3.294
REMARK INTER:                  -3.254
REMARK INTRA:                  -0.039
REMARK UNBOUND:                -0.047
REMARK  Name = 
REMARK  3 active torsions:
REMARK  status: ('A' for Active; 'I' for Inactive)
REMARK    1  A    between atoms: C_1  and  O_2
REMARK    2  A    between atoms: O_2  and  C_3
REMARK    3  A    between atoms: C_8  and  O_9
REMARK                            x       y       z     vdW  Elec       q    Type
REMARK                         _______ _______ _______ _____ _____    ______ ____
ROOT
ATOM      1  C   UNL     1     -19.454  12.746 -22.728  0.00  0.00    +0.000 A 
ATOM      2  C   UNL     1     -19.187  12.942 -24.082  0.00  0.00    +0.000 A 
ATOM      3  C   UNL     1     -19.392  14.201 -24.660  0.00  0.00    +0.000 A 
ATOM      4  C   UNL     1     -19.863  15.266 -23.889  0.00  0.00    +0.000 A 
ATOM      5  C   UNL     1     -20.130  15.077 -22.535  0.00  0.00    +0.000 A 
ATOM      6  C   UNL     1     -19.925  13.825 -21.970  0.00  0.00    +0.000 A 
ENDROOT
BRANCH   1   8
ATOM      7  C   UNL     1     -18.383  10.630 -22.574  0.00  0.00    +0.000 C 
ATOM      8  O   UNL     1     -19.301  11.572 -22.033  0.00  0.00    +0.000 OA
ENDBRANCH   1   8
BRANCH   6   9
ATOM      9  O   UNL     1     -20.195  13.664 -20.638  0.00  0.00    +0.000 OA
ATOM     10  H   UNL     1     -21.138  13.901 -20.545  0.00  0.00    +0.000 HD
ENDBRANCH   6   9
TORSDOF 2
ENDMDL
MODEL 5
REMARK VINA RESULT:    -2.947      9.853     10.792
REMARK INTER + INTRA:          -3.253
REMARK INTER:                  -3.215
REMARK INTRA:                  -0.037
REMARK UNBOUND:                -0.047
REMARK  Name = 
REMARK  3 active torsions:
REMARK  status: ('A' for Active; 'I' for Inactive)
REMARK    1  A    between atoms: C_1  and  O_2
REMARK    2  A    between atoms: O_2  and  C_3
REMARK    3  A    between atoms: C_8  and  O_9
REMARK                            x       y       z     vdW  Elec       q    Type
REMARK                         _______ _______ _______ _____ _____    ______ ____
ROOT
ATOM      1  C   UNL     1     -18.011  14.962 -12.862  0.00  0.00    +0.000 A 
ATOM      2  C   UNL     1     -18.221  16.297 -13.205  0.00  0.00    +0.000 A 
ATOM      3  C   UNL     1     -18.663  16.628 -14.492  0.00  0.00    +0.000 A 
ATOM      4  C   UNL     1     -18.894  15.628 -15.439  0.00  0.00    +0.000 A 
ATOM      5  C   UNL     1     -18.687  14.292 -15.104  0.00  0.00    +0.000 A 
ATOM      6  C   UNL     1     -18.249  13.974 -13.825  0.00  0.00    +0.000 A 
ENDROOT
BRANCH   1   8
ATOM      7  C   UNL     1     -17.471  15.454 -10.601  0.00  0.00    +0.000 C 
ATOM      8  O   UNL     1     -17.582  14.495 -11.646  0.00  0.00    +0.000 OA
ENDBRANCH   1   8
BRANCH   6   9
ATOM      9  O   UNL     1     -18.052  12.654 -13.519  0.00  0.00    +0.000 OA
ATOM     10  H   UNL     1     -17.082  12.541 -13.518  0.00  0.00    +0.000 HD
ENDBRANCH   6   9
TORSDOF 2
ENDMDL
MODEL 6
REMARK VINA RESULT:    -2.934     15.559     16.671
REMARK INTER + INTRA:          -3.238
REMARK INTER:                  -3.187
REMARK INTRA:                  -0.051
REMARK UNBOUND:                -0.047
REMARK  Name = 
REMARK  3 active torsions:
REMARK  status: ('A' for Active; 'I' for Inactive)
REMARK    1  A    between atoms: C_1  and  O_2
REMARK    2  A    between atoms: O_2  and  C_3
REMARK    3  A    between atoms: C_8  and  O_9
REMARK                            x       y       z     vdW  Elec       q    Type
REMARK                         _______ _______ _______ _____ _____    ______ ____
ROOT
ATOM      1  C   UNL     1     -15.784  14.199  -6.408  0.00  0.00    +0.000 A 
ATOM      2  C   UNL     1     -15.580  12.938  -5.850  0.00  0.00    +0.000 A 
ATOM      3  C   UNL     1     -16.286  11.833  -6.341  0.00  0.00    +0.000 A 
ATOM      4  C   UNL     1     -17.196  11.983  -7.390  0.00  0.00    +0.000 A 
ATOM      5  C   UNL     1     -17.405  13.239  -7.953  0.00  0.00    +0.000 A 
ATOM      6  C   UNL     1     -16.701  14.330  -7.459  0.00  0.00    +0.000 A 
ENDROOT
BRANCH   1   8
ATOM      7  C   UNL     1     -13.746  15.378  -6.091  0.00  0.00    +0.000 C 
ATOM      8  O   UNL     1     -15.167  15.364  -6.029  0.00  0.00    +0.000 OA
ENDBRANCH   1   8
BRANCH   6   9
ATOM      9  O   UNL     1     -16.924  15.555  -8.029  0.00  0.00    +0.000 OA
ATOM     10  H   UNL     1     -17.892  15.673  -7.994  0.00  0.00    +0.000 HD
ENDBRANCH   6   9
TORSDOF 2
ENDMDL
MODEL 7
REMARK VINA RESULT:    -2.933      2.722      4.278
REMARK INTER + INTRA:          -3.237
REMARK INTER:                  -3.193
REMARK INTRA:                  -0.044
REMARK UNBOUND:                -0.047
REMARK  Name = 
REMARK  3 active torsions:
REMARK  status: ('A' for Active; 'I' for Inactive)
REMARK    1  A    between atoms: C_1  and  O_2
REMARK    2  A    between atoms: O_2  and  C_3
REMARK    3  A    between atoms: C_8  and  O_9
REMARK                            x       y       z     vdW  Elec       q    Type
REMARK                         _______ _______ _______ _____ _____    ______ ____
ROOT
ATOM      1  C   UNL     1     -19.573  12.423 -22.866  0.00  0.00    +0.000 A 
ATOM      2  C   UNL     1     -20.003  13.474 -22.058  0.00  0.00    +0.000 A 
ATOM      3  C   UNL     1     -19.981  14.786 -22.547  0.00  0.00    +0.000 A 
ATOM      4  C   UNL     1     -19.529  15.052 -23.841  0.00  0.00    +0.000 A 
ATOM      5  C   UNL     1     -19.098  14.007 -24.655  0.00  0.00    +0.000 A 
ATOM      6  C   UNL     1     -19.123  12.708 -24.161  0.00  0.00    +0.000 A 
ENDROOT
BRANCH   1   8
ATOM      7  C   UNL     1     -19.158  10.798 -21.182  0.00  0.00    +0.000 C 
ATOM      8  O   UNL     1     -19.539  11.095 -22.520  0.00  0.00    +0.000 OA
ENDBRANCH   1   8
BRANCH   6   9
ATOM      9  O   UNL     1     -18.695  11.697 -24.979  0.00  0.00    +0.000 OA
ATOM     10  H   UNL     1     -19.504  11.375 -25.420  0.00  0.00    +0.000 HD
ENDBRANCH   6   9
TORSDOF 2
ENDMDL
MODEL 8
REMARK VINA RESULT:    -2.835      1.774      2.759
REMARK INTER + INTRA:          -3.130
REMARK INTER:                  -3.079
REMARK INTRA:                  -0.052
REMARK UNBOUND:                -0.047
REMARK  Name = 
REMARK  3 active torsions:
REMARK  status: ('A' for Active; 'I' for Inactive)
REMARK    1  A    between atoms: C_1  and  O_2
REMARK    2  A    between atoms: O_2  and  C_3
REMARK    3  A    between atoms: C_8  and  O_9
REMARK                            x       y       z     vdW  Elec       q    Type
REMARK                         _______ _______ _______ _____ _____    ______ ____
ROOT
ATOM      1  C   UNL     1     -17.168  12.003 -23.968  0.00  0.00    +0.000 A 
ATOM      2  C   UNL     1     -16.812  11.014 -23.053  0.00  0.00    +0.000 A 
ATOM      3  C   UNL     1     -17.800  10.382 -22.286  0.00  0.00    +0.000 A 
ATOM      4  C   UNL     1     -19.143  10.735 -22.431  0.00  0.00    +0.000 A 
ATOM      5  C   UNL     1     -19.506  11.723 -23.344  0.00  0.00    +0.000 A 
ATOM      6  C   UNL     1     -18.520  12.344 -24.100  0.00  0.00    +0.000 A 
ENDROOT
BRANCH   1   8
ATOM      7  C   UNL     1     -15.301  13.464 -24.130  0.00  0.00    +0.000 C 
ATOM      8  O   UNL     1     -16.312  12.703 -24.780  0.00  0.00    +0.000 OA
ENDBRANCH   1   8
BRANCH   6   9
ATOM      9  O   UNL     1     -18.902  13.312 -24.991  0.00  0.00    +0.000 OA
ATOM     10  H   UNL     1     -18.065  13.657 -25.357  0.00  0.00    +0.000 HD
ENDBRANCH   6   9
TORSDOF 2
ENDMDL
