MODEL 1
REMARK VINA RESULT:    -4.097      0.000      0.000
REMARK INTER + INTRA:          -6.102
REMARK INTER:                  -5.534
REMARK INTRA:                  -0.569
REMARK UNBOUND:                -0.569
REMARK  Name = 
REMARK  10 active torsions:
REMARK  status: ('A' for Active; 'I' for Inactive)
REMARK    1  A    between atoms: C_1  and  C_2
REMARK    2  A    between atoms: C_5  and  N_8
REMARK    3  A    between atoms: N_8  and  C_9
REMARK    4  A    between atoms: N_8  and  C_13
REMARK    5  A    between atoms: C_9  and  C_10
REMARK    6  A    between atoms: C_10  and  C_11
REMARK    7  A    between atoms: C_10  and  O_12
REMARK    8  A    between atoms: C_13  and  C_14
REMARK    9  A    between atoms: C_14  and  C_15
REMARK   10  A    between atoms: C_14  and  O_16
REMARK                            x       y       z     vdW  Elec       q    Type
REMARK                         _______ _______ _______ _____ _____    ______ ____
ROOT
ATOM      1  N   UNL     1     -16.874  12.013 -24.174  0.00  0.00    +0.000 N 
ENDROOT
BRANCH   1   6
ATOM      2  C   UNL     1     -20.107  16.463 -25.926  0.00  0.00    +0.000 C 
ATOM      3  C   UNL     1     -19.262  15.321 -25.451  0.00  0.00    +0.000 A 
ATOM      4  C   UNL     1     -17.928  15.215 -25.828  0.00  0.00    +0.000 A 
ATOM      5  C   UNL     1     -17.148  14.126 -25.404  0.00  0.00    +0.000 A 
ATOM      6  C   UNL     1     -17.662  13.086 -24.609  0.00  0.00    +0.000 A 
ATOM      7  C   UNL     1     -19.014  13.227 -24.245  0.00  0.00    +0.000 A 
ATOM      8  C   UNL     1     -19.804  14.312 -24.660  0.00  0.00    +0.000 A 
ENDBRANCH   1   6
BRANCH   1   9
ATOM      9  C   UNL     1     -15.428  11.973 -24.499  0.00  0.00    +0.000 C 
BRANCH   9  10
ATOM     10  C   UNL     1     -15.099  10.992 -25.651  0.00  0.00    +0.000 C 
ATOM     11  C   UNL     1     -14.926  11.738 -26.969  0.00  0.00    +0.000 C 
BRANCH  10  12
ATOM     12  O   UNL     1     -13.886  10.274 -25.385  0.00  0.00    +0.000 OA
ATOM     13  H   UNL     1     -13.195  10.620 -25.975  0.00  0.00    +0.000 HD
ENDBRANCH  10  12
ENDBRANCH   9  10
ENDBRANCH   1   9
BRANCH   1  14
ATOM     14  C   UNL     1     -17.478  10.695 -23.854  0.00  0.00    +0.000 C 
BRANCH  14  15
ATOM     15  C   UNL     1     -17.442  10.388 -22.337  0.00  0.00    +0.000 C 
ATOM     16  C   UNL     1     -18.816  10.449 -21.681  0.00  0.00    +0.000 C 
BRANCH  15  17
ATOM     17  O   UNL     1     -16.883   9.102 -22.073  0.00  0.00    +0.000 OA
ATOM     18  H   UNL     1     -16.163   9.267 -21.431  0.00  0.00    +0.000 HD
ENDBRANCH  15  17
ENDBRANCH  14  15
ENDBRANCH   1  14
TORSDOF 7
ENDMDL
MODEL 2
REMARK VINA RESULT:    -3.905      1.673      3.513
REMARK INTER + INTRA:          -5.843
REMARK INTER:                  -5.285
REMARK INTRA:                  -0.558
REMARK UNBOUND:                -0.569
REMARK  Name = 
REMARK  10 active torsions:
REMARK  status: ('A' for Active; 'I' for Inactive)
REMARK    1  A    between atoms: C_1  and  C_2
REMARK    2  A    between atoms: C_5  and  N_8
REMARK    3  A    between atoms: N_8  and  C_9
REMARK    4  A    between atoms: N_8  and  C_13
REMARK    5  A    between atoms: C_9  and  C_10
REMARK    6  A    between atoms: C_10  and  C_11
REMARK    7  A    between atoms: C_10  and  O_12
REMARK    8  A    between atoms: C_13  and  C_14
REMARK    9  A    between atoms: C_14  and  C_15
REMARK   10  A    between atoms: C_14  and  O_16
REMARK                            x       y       z     vdW  Elec       q    Type
REMARK                         _______ _______ _______ _____ _____    ______ ____
ROOT
ATOM      1  N   UNL     1     -17.248  12.310 -24.743  0.00  0.00    +0.000 N 
ENDROOT
BRANCH   1   6
ATOM      2  C   UNL     1     -19.311  16.950 -21.996  0.00  0.00    +0.000 C 
ATOM      3  C   UNL     1     -18.764  15.739 -22.688  0.00  0.00    +0.000 A 
ATOM      4  C   UNL     1     -17.560  15.796 -23.383  0.00  0.00    +0.000 A 
ATOM      5  C   UNL     1     -17.067  14.666 -24.054  0.00  0.00    +0.000 A 
ATOM      6  C   UNL     1     -17.755  13.439 -24.087  0.00  0.00    +0.000 A 
ATOM      7  C   UNL     1     -18.967  13.417 -23.373  0.00  0.00    +0.000 A 
ATOM      8  C   UNL     1     -19.470  14.540 -22.695  0.00  0.00    +0.000 A 
ENDBRANCH   1   6
BRANCH   1   9
ATOM      9  C   UNL     1     -17.468  10.959 -24.174  0.00  0.00    +0.000 C 
BRANCH   9  10
ATOM     10  C   UNL     1     -16.887  10.806 -22.747  0.00  0.00    +0.000 C 
ATOM     11  C   UNL     1     -17.775   9.911 -21.890  0.00  0.00    +0.000 C 
BRANCH  10  12
ATOM     12  O   UNL     1     -15.576  10.227 -22.784  0.00  0.00    +0.000 OA
ATOM     13  H   UNL     1     -14.940  10.933 -22.984  0.00  0.00    +0.000 HD
ENDBRANCH  10  12
ENDBRANCH   9  10
ENDBRANCH   1   9
BRANCH   1  14
ATOM     14  C   UNL     1     -16.096  12.415 -25.675  0.00  0.00    +0.000 C 
BRANCH  14  15
ATOM     15  C   UNL     1     -15.594  11.028 -26.142  0.00  0.00    +0.000 C 
ATOM     16  C   UNL     1     -15.432  10.927 -27.654  0.00  0.00    +0.000 C 
BRANCH  15  17
ATOM     17  O   UNL     1     -14.345  10.689 -25.541  0.00  0.00    +0.000 OA
ATOM     18  H   UNL     1     -13.816  10.294 -26.263  0.00  0.00    +0.000 HD
ENDBRANCH  15  17
ENDBRANCH  14  15
ENDBRANCH   1  14
TORSDOF 7
ENDMDL
MODEL 3
REMARK VINA RESULT:    -3.869      2.068      2.600
REMARK INTER + INTRA:          -5.794
REMARK INTER:                  -5.139
REMARK INTRA:                  -0.655
REMARK UNBOUND:                -0.569
REMARK  Name = 
REMARK  10 active torsions:
REMARK  status: ('A' for Active; 'I' for Inactive)
REMARK    1  A    between atoms: C_1  and  C_2
REMARK    2  A    between atoms: C_5  and  N_8
REMARK    3  A    between atoms: N_8  and  C_9
REMARK    4  A    between atoms: N_8  and  C_13
REMARK    5  A    between atoms: C_9  and  C_10
REMARK    6  A    between atoms: C_10  and  C_11
REMARK    7  A    between atoms: C_10  and  O_12
REMARK    8  A    between atoms: C_13  and  C_14
REMARK    9  A    between atoms: C_14  and  C_15
REMARK   10  A    between atoms: C_14  and  O_16
REMARK                            x       y       z     vdW  Elec       q    Type
REMARK                         _______ _______ _______ _____ _____    ______ ____
ROOT
ATOM      1  N   UNL     1     -18.980  11.247 -24.034  0.00  0.00    +0.000 N 
ENDROOT
BRANCH   1   6
ATOM      2  C   UNL     1     -19.042  16.974 -24.759  0.00  0.00    +0.000 C 
ATOM      3  C   UNL     1     -19.018  15.491 -24.547  0.00  0.00    +0.000 A 
ATOM      4  C   UNL     1     -17.889  14.743 -24.861  0.00  0.00    +0.000 A 
ATOM      5  C   UNL     1     -17.882  13.349 -24.688  0.00  0.00    +0.000 A 
ATOM      6  C   UNL     1     -19.000  12.634 -24.221  0.00  0.00    +0.000 A 
ATOM      7  C   UNL     1     -20.124  13.423 -23.913  0.00  0.00    +0.000 A 
ATOM      8  C   UNL     1     -20.143  14.818 -24.078  0.00  0.00    +0.000 A 
ENDBRANCH   1   6
BRANCH   1   9
ATOM      9  C   UNL     1     -19.687  10.357 -24.987  0.00  0.00    +0.000 C 
BRANCH   9  10
ATOM     10  C   UNL     1     -18.730   9.390 -25.727  0.00  0.00    +0.000 C 
ATOM     11  C   UNL     1     -19.431   8.726 -26.906  0.00  0.00    +0.000 C 
BRANCH  10  12
ATOM     12  O   UNL     1     -17.581  10.086 -26.228  0.00  0.00    +0.000 OA
ATOM     13  H   UNL     1     -17.106  10.468 -25.471  0.00  0.00    +0.000 HD
ENDBRANCH  10  12
ENDBRANCH   9  10
ENDBRANCH   1   9
BRANCH   1  14
ATOM     14  C   UNL     1     -18.734  10.655 -22.693  0.00  0.00    +0.000 C 
BRANCH  14  15
ATOM     15  C   UNL     1     -17.225  10.561 -22.364  0.00  0.00    +0.000 C 
ATOM     16  C   UNL     1     -16.889   9.418 -21.414  0.00  0.00    +0.000 C 
BRANCH  15  17
ATOM     17  O   UNL     1     -16.438  10.401 -23.543  0.00  0.00    +0.000 OA
ATOM     18  H   UNL     1     -16.761  11.089 -24.159  0.00  0.00    +0.000 HD
ENDBRANCH  15  17
ENDBRANCH  14  15
ENDBRANCH   1  14
TORSDOF 7
ENDMDL
MODEL 4
REMARK VINA RESULT:    -3.845      2.531      3.899
REMARK INTER + INTRA:          -5.762
REMARK INTER:                  -5.575
REMARK INTRA:                  -0.188
REMARK UNBOUND:                -0.569
REMARK  Name = 
REMARK  10 active torsions:
REMARK  status: ('A' for Active; 'I' for Inactive)
REMARK    1  A    between atoms: C_1  and  C_2
REMARK    2  A    between atoms: C_5  and  N_8
REMARK    3  A    between atoms: N_8  and  C_9
REMARK    4  A    between atoms: N_8  and  C_13
REMARK    5  A    between atoms: C_9  and  C_10
REMARK    6  A    between atoms: C_10  and  C_11
REMARK    7  A    between atoms: C_10  and  O_12
REMARK    8  A    between atoms: C_13  and  C_14
REMARK    9  A    between atoms: C_14  and  C_15
REMARK   10  A    between atoms: C_14  and  O_16
REMARK                            x       y       z     vdW  Elec       q    Type
REMARK                         _______ _______ _______ _____ _____    ______ ____
ROOT
ATOM      1  N   UNL     1     -16.237  10.505 -26.354  0.00  0.00    +0.000 N 
ENDROOT
BRANCH   1   6
ATOM      2  C   UNL     1     -19.520  12.736 -22.162  0.00  0.00    +0.000 C 
ATOM      3  C   UNL     1     -18.685  12.164 -23.266  0.00  0.00    +0.000 A 
ATOM      4  C   UNL     1     -18.833  10.839 -23.662  0.00  0.00    +0.000 A 
ATOM      5  C   UNL     1     -18.027  10.300 -24.678  0.00  0.00    +0.000 A 
ATOM      6  C   UNL     1     -17.024  11.043 -25.328  0.00  0.00    +0.000 A 
ATOM      7  C   UNL     1     -16.904  12.379 -24.904  0.00  0.00    +0.000 A 
ATOM      8  C   UNL     1     -17.706  12.931 -23.891  0.00  0.00    +0.000 A 
ENDBRANCH   1   6
BRANCH   1   9
ATOM      9  C   UNL     1     -14.894  11.067 -26.632  0.00  0.00    +0.000 C 
BRANCH   9  10
ATOM     10  C   UNL     1     -13.812   9.974 -26.817  0.00  0.00    +0.000 C 
ATOM     11  C   UNL     1     -12.734  10.433 -27.791  0.00  0.00    +0.000 C 
BRANCH  10  12
ATOM     12  O   UNL     1     -13.178   9.662 -25.568  0.00  0.00    +0.000 OA
ATOM     13  H   UNL     1     -12.420  10.259 -25.458  0.00  0.00    +0.000 HD
ENDBRANCH  10  12
ENDBRANCH   9  10
ENDBRANCH   1   9
BRANCH   1  14
ATOM     14  C   UNL     1     -16.850   9.763 -27.485  0.00  0.00    +0.000 C 
BRANCH  14  15
ATOM     15  C   UNL     1     -17.216   8.309 -27.100  0.00  0.00    +0.000 C 
ATOM     16  C   UNL     1     -18.657   7.944 -27.440  0.00  0.00    +0.000 C 
BRANCH  15  17
ATOM     17  O   UNL     1     -16.359   7.363 -27.738  0.00  0.00    +0.000 OA
ATOM     18  H   UNL     1     -15.523   7.398 -27.231  0.00  0.00    +0.000 HD
ENDBRANCH  15  17
ENDBRANCH  14  15
ENDBRANCH   1  14
TORSDOF 7
ENDMDL
MODEL 5
REMARK VINA RESULT:    -3.807      1.305      1.364
REMARK INTER + INTRA:          -5.712
REMARK INTER:                  -4.894
REMARK INTRA:                  -0.818
REMARK UNBOUND:                -0.569
REMARK  Name = 
REMARK  10 active torsions:
REMARK  status: ('A' for Active; 'I' for Inactive)
REMARK    1  A    between atoms: C_1  and  C_2
REMARK    2  A    between atoms: C_5  and  N_8
REMARK    3  A    between atoms: N_8  and  C_9
REMARK    4  A    between atoms: N_8  and  C_13
REMARK    5  A    between atoms: C_9  and  C_10
REMARK    6  A    between atoms: C_10  and  C_11
REMARK    7  A    between atoms: C_10  and  O_12
REMARK    8  A    between atoms: C_13  and  C_14
REMARK    9  A    between atoms: C_14  and  C_15
REMARK   10  A    between atoms: C_14  and  O_16
REMARK                            x       y       z     vdW  Elec       q    Type
REMARK                         _______ _______ _______ _____ _____    ______ ____
ROOT
ATOM      1  N   UNL     1     -17.180  11.362 -24.684  0.00  0.00    +0.000 N 
ENDROOT
BRANCH   1   6
ATOM      2  C   UNL     1     -18.705  16.862 -23.821  0.00  0.00    +0.000 C 
ATOM      3  C   UNL     1     -18.311  15.431 -24.020  0.00  0.00    +0.000 A 
ATOM      4  C   UNL     1     -16.972  15.055 -24.041  0.00  0.00    +0.000 A 
ATOM      5  C   UNL     1     -16.607  13.716 -24.258  0.00  0.00    +0.000 A 
ATOM      6  C   UNL     1     -17.550  12.698 -24.488  0.00  0.00    +0.000 A 
ATOM      7  C   UNL     1     -18.894  13.114 -24.458  0.00  0.00    +0.000 A 
ATOM      8  C   UNL     1     -19.272  14.449 -24.240  0.00  0.00    +0.000 A 
ENDBRANCH   1   6
BRANCH   1   9
ATOM      9  C   UNL     1     -16.795  10.888 -26.036  0.00  0.00    +0.000 C 
BRANCH   9  10
ATOM     10  C   UNL     1     -15.265  10.916 -26.269  0.00  0.00    +0.000 C 
ATOM     11  C   UNL     1     -14.855  12.157 -27.053  0.00  0.00    +0.000 C 
BRANCH  10  12
ATOM     12  O   UNL     1     -14.555  10.923 -25.022  0.00  0.00    +0.000 OA
ATOM     13  H   UNL     1     -14.950  11.605 -24.454  0.00  0.00    +0.000 HD
ENDBRANCH  10  12
ENDBRANCH   9  10
ENDBRANCH   1   9
BRANCH   1  14
ATOM     14  C   UNL     1     -17.627  10.295 -23.753  0.00  0.00    +0.000 C 
BRANCH  14  15
ATOM     15  C   UNL     1     -16.930  10.392 -22.375  0.00  0.00    +0.000 C 
ATOM     16  C   UNL     1     -17.576   9.512 -21.312  0.00  0.00    +0.000 C 
BRANCH  15  17
ATOM     17  O   UNL     1     -15.549  10.043 -22.457  0.00  0.00    +0.000 OA
ATOM     18  H   UNL     1     -15.356   9.996 -23.415  0.00  0.00    +0.000 HD
ENDBRANCH  15  17
ENDBRANCH  14  15
ENDBRANCH   1  14
TORSDOF 7
ENDMDL
MODEL 6
REMARK VINA RESULT:    -3.704      1.389      3.812
REMARK INTER + INTRA:          -5.572
REMARK INTER:                  -5.076
REMARK INTRA:                  -0.496
REMARK UNBOUND:                -0.569
REMARK  Name = 
REMARK  10 active torsions:
REMARK  status: ('A' for Active; 'I' for Inactive)
REMARK    1  A    between atoms: C_1  and  C_2
REMARK    2  A    between atoms: C_5  and  N_8
REMARK    3  A    between atoms: N_8  and  C_9
REMARK    4  A    between atoms: N_8  and  C_13
REMARK    5  A    between atoms: C_9  and  C_10
REMARK    6  A    between atoms: C_10  and  C_11
REMARK    7  A    between atoms: C_10  and  O_12
REMARK    8  A    between atoms: C_13  and  C_14
REMARK    9  A    between atoms: C_14  and  C_15
REMARK   10  A    between atoms: C_14  and  O_16
REMARK                            x       y       z     vdW  Elec       q    Type
REMARK                         _______ _______ _______ _____ _____    ______ ____
ROOT
ATOM      1  N   UNL     1     -16.924  11.570 -24.520  0.00  0.00    +0.000 N 
ENDROOT
BRANCH   1   6
ATOM      2  C   UNL     1     -18.723  16.987 -23.658  0.00  0.00    +0.000 C 
ATOM      3  C   UNL     1     -18.257  15.585 -23.907  0.00  0.00    +0.000 A 
ATOM      4  C   UNL     1     -19.166  14.539 -24.017  0.00  0.00    +0.000 A 
ATOM      5  C   UNL     1     -18.722  13.222 -24.220  0.00  0.00    +0.000 A 
ATOM      6  C   UNL     1     -17.360  12.882 -24.299  0.00  0.00    +0.000 A 
ATOM      7  C   UNL     1     -16.468  13.965 -24.185  0.00  0.00    +0.000 A 
ATOM      8  C   UNL     1     -16.899  15.287 -23.984  0.00  0.00    +0.000 A 
ENDBRANCH   1   6
BRANCH   1   9
ATOM      9  C   UNL     1     -17.652  10.432 -23.909  0.00  0.00    +0.000 C 
BRANCH   9  10
ATOM     10  C   UNL     1     -17.434  10.333 -22.379  0.00  0.00    +0.000 C 
ATOM     11  C   UNL     1     -18.759  10.440 -21.632  0.00  0.00    +0.000 C 
BRANCH  10  12
ATOM     12  O   UNL     1     -16.824   9.084 -22.025  0.00  0.00    +0.000 OA
ATOM     13  H   UNL     1     -15.902   9.103 -22.328  0.00  0.00    +0.000 HD
ENDBRANCH  10  12
ENDBRANCH   9  10
ENDBRANCH   1   9
BRANCH   1  14
ATOM     14  C   UNL     1     -15.518  11.280 -24.900  0.00  0.00    +0.000 C 
BRANCH  14  15
ATOM     15  C   UNL     1     -15.326  11.224 -26.435  0.00  0.00    +0.000 C 
ATOM     16  C   UNL     1     -14.190  10.305 -26.864  0.00  0.00    +0.000 C 
BRANCH  15  17
ATOM     17  O   UNL     1     -16.515  10.798 -27.099  0.00  0.00    +0.000 OA
ATOM     18  H   UNL     1     -17.169  11.504 -26.925  0.00  0.00    +0.000 HD
ENDBRANCH  15  17
ENDBRANCH  14  15
ENDBRANCH   1  14
TORSDOF 7
ENDMDL
MODEL 7
REMARK VINA RESULT:    -3.644      3.479      4.286
REMARK INTER + INTRA:          -5.491
REMARK INTER:                  -5.159
REMARK INTRA:                  -0.332
REMARK UNBOUND:                -0.569
REMARK  Name = 
REMARK  10 active torsions:
REMARK  status: ('A' for Active; 'I' for Inactive)
REMARK    1  A    between atoms: C_1  and  C_2
REMARK    2  A    between atoms: C_5  and  N_8
REMARK    3  A    between atoms: N_8  and  C_9
REMARK    4  A    between atoms: N_8  and  C_13
REMARK    5  A    between atoms: C_9  and  C_10
REMARK    6  A    between atoms: C_10  and  C_11
REMARK    7  A    between atoms: C_10  and  O_12
REMARK    8  A    between atoms: C_13  and  C_14
REMARK    9  A    between atoms: C_14  and  C_15
REMARK   10  A    between atoms: C_14  and  O_16
REMARK                            x       y       z     vdW  Elec       q    Type
REMARK                         _______ _______ _______ _____ _____    ______ ____
ROOT
ATOM      1  N   UNL     1     -15.314  10.267 -27.119  0.00  0.00    +0.000 N 
ENDROOT
BRANCH   1   6
ATOM      2  C   UNL     1     -15.341  15.055 -23.893  0.00  0.00    +0.000 C 
ATOM      3  C   UNL     1     -15.310  13.809 -24.726  0.00  0.00    +0.000 A 
ATOM      4  C   UNL     1     -15.070  13.871 -26.094  0.00  0.00    +0.000 A 
ATOM      5  C   UNL     1     -15.071  12.703 -26.875  0.00  0.00    +0.000 A 
ATOM      6  C   UNL     1     -15.333  11.430 -26.338  0.00  0.00    +0.000 A 
ATOM      7  C   UNL     1     -15.570  11.405 -24.952  0.00  0.00    +0.000 A 
ATOM      8  C   UNL     1     -15.569  12.565 -24.159  0.00  0.00    +0.000 A 
ENDBRANCH   1   6
BRANCH   1   9
ATOM      9  C   UNL     1     -14.030   9.746 -27.645  0.00  0.00    +0.000 C 
BRANCH   9  10
ATOM     10  C   UNL     1     -12.861   9.909 -26.643  0.00  0.00    +0.000 C 
ATOM     11  C   UNL     1     -12.405   8.554 -26.112  0.00  0.00    +0.000 C 
BRANCH  10  12
ATOM     12  O   UNL     1     -11.735  10.544 -27.264  0.00  0.00    +0.000 OA
ATOM     13  H   UNL     1     -11.701  10.257 -28.191  0.00  0.00    +0.000 HD
ENDBRANCH  10  12
ENDBRANCH   9  10
ENDBRANCH   1   9
BRANCH   1  14
ATOM     14  C   UNL     1     -16.520   9.820 -27.862  0.00  0.00    +0.000 C 
BRANCH  14  15
ATOM     15  C   UNL     1     -17.192   8.592 -27.201  0.00  0.00    +0.000 C 
ATOM     16  C   UNL     1     -18.667   8.451 -27.558  0.00  0.00    +0.000 C 
BRANCH  15  17
ATOM     17  O   UNL     1     -16.534   7.377 -27.556  0.00  0.00    +0.000 OA
ATOM     18  H   UNL     1     -16.085   7.084 -26.738  0.00  0.00    +0.000 HD
ENDBRANCH  15  17
ENDBRANCH  14  15
ENDBRANCH   1  14
TORSDOF 7
ENDMDL
MODEL 8
REMARK VINA RESULT:    -3.608      3.173      4.948
REMARK INTER + INTRA:          -5.442
REMARK INTER:                  -4.976
REMARK INTRA:                  -0.467
REMARK UNBOUND:                -0.569
REMARK  Name = 
REMARK  10 active torsions:
REMARK  status: ('A' for Active; 'I' for Inactive)
REMARK    1  A    between atoms: C_1  and  C_2
REMARK    2  A    between atoms: C_5  and  N_8
REMARK    3  A    between atoms: N_8  and  C_9
REMARK    4  A    between atoms: N_8  and  C_13
REMARK    5  A    between atoms: C_9  and  C_10
REMARK    6  A    between atoms: C_10  and  C_11
REMARK    7  A    between atoms: C_10  and  O_12
REMARK    8  A    between atoms: C_13  and  C_14
REMARK    9  A    between atoms: C_14  and  C_15
REMARK   10  A    between atoms: C_14  and  O_16
REMARK                            x       y       z     vdW  Elec       q    Type
REMARK                         _______ _______ _______ _____ _____    ______ ____
ROOT
ATOM      1  N   UNL     1     -16.541  10.712 -26.273  0.00  0.00    +0.000 N 
ENDROOT
BRANCH   1   6
ATOM      2  C   UNL     1     -19.241  10.698 -21.170  0.00  0.00    +0.000 C 
ATOM      3  C   UNL     1     -18.542  10.677 -22.495  0.00  0.00    +0.000 A 
ATOM      4  C   UNL     1     -17.154  10.631 -22.569  0.00  0.00    +0.000 A 
ATOM      5  C   UNL     1     -16.503  10.641 -23.814  0.00  0.00    +0.000 A 
ATOM      6  C   UNL     1     -17.196  10.722 -25.035  0.00  0.00    +0.000 A 
ATOM      7  C   UNL     1     -18.598  10.765 -24.922  0.00  0.00    +0.000 A 
ATOM      8  C   UNL     1     -19.262  10.753 -23.684  0.00  0.00    +0.000 A 
ENDBRANCH   1   6
BRANCH   1   9
ATOM      9  C   UNL     1     -17.022   9.828 -27.361  0.00  0.00    +0.000 C 
BRANCH   9  10
ATOM     10  C   UNL     1     -17.434   8.423 -26.856  0.00  0.00    +0.000 C 
ATOM     11  C   UNL     1     -18.761   7.991 -27.470  0.00  0.00    +0.000 C 
BRANCH  10  12
ATOM     12  O   UNL     1     -16.446   7.442 -27.199  0.00  0.00    +0.000 OA
ATOM     13  H   UNL     1     -16.337   6.847 -26.439  0.00  0.00    +0.000 HD
ENDBRANCH  10  12
ENDBRANCH   9  10
ENDBRANCH   1   9
BRANCH   1  14
ATOM     14  C   UNL     1     -15.124  11.140 -26.396  0.00  0.00    +0.000 C 
BRANCH  14  15
ATOM     15  C   UNL     1     -14.301  10.185 -27.295  0.00  0.00    +0.000 C 
ATOM     16  C   UNL     1     -13.121  10.869 -27.974  0.00  0.00    +0.000 C 
BRANCH  15  17
ATOM     17  O   UNL     1     -13.801   9.069 -26.559  0.00  0.00    +0.000 OA
ATOM     18  H   UNL     1     -13.868   9.335 -25.620  0.00  0.00    +0.000 HD
ENDBRANCH  15  17
ENDBRANCH  14  15
ENDBRANCH   1  14
TORSDOF 7
ENDMDL
MODEL 9
REMARK VINA RESULT:    -3.541     13.907     15.961
REMARK INTER + INTRA:          -5.352
REMARK INTER:                  -4.929
REMARK INTRA:                  -0.423
REMARK UNBOUND:                -0.569
REMARK  Name = 
REMARK  10 active torsions:
REMARK  status: ('A' for Active; 'I' for Inactive)
REMARK    1  A    between atoms: C_1  and  C_2
REMARK    2  A    between atoms: C_5  and  N_8
REMARK    3  A    between atoms: N_8  and  C_9
REMARK    4  A    between atoms: N_8  and  C_13
REMARK    5  A    between atoms: C_9  and  C_10
REMARK    6  A    between atoms: C_10  and  C_11
REMARK    7  A    between atoms: C_10  and  O_12
REMARK    8  A    between atoms: C_13  and  C_14
REMARK    9  A    between atoms: C_14  and  C_15
REMARK   10  A    between atoms: C_14  and  O_16
REMARK                            x       y       z     vdW  Elec       q    Type
REMARK                         _______ _______ _______ _____ _____    ______ ____
ROOT
ATOM      1  N   UNL     1     -17.478  14.992  -8.310  0.00  0.00    +0.000 N 
ENDROOT
BRANCH   1   6
ATOM      2  C   UNL     1     -19.204  16.452 -13.622  0.00  0.00    +0.000 C 
ATOM      3  C   UNL     1     -18.774  16.056 -12.243  0.00  0.00    +0.000 A 
ATOM      4  C   UNL     1     -19.293  16.694 -11.122  0.00  0.00    +0.000 A 
ATOM      5  C   UNL     1     -18.864  16.339  -9.832  0.00  0.00    +0.000 A 
ATOM      6  C   UNL     1     -17.887  15.354  -9.600  0.00  0.00    +0.000 A 
ATOM      7  C   UNL     1     -17.385  14.729 -10.756  0.00  0.00    +0.000 A 
ATOM      8  C   UNL     1     -17.807  15.073 -12.051  0.00  0.00    +0.000 A 
ENDBRANCH   1   6
BRANCH   1   9
ATOM      9  C   UNL     1     -17.896  13.690  -7.736  0.00  0.00    +0.000 C 
BRANCH   9  10
ATOM     10  C   UNL     1     -16.714  12.707  -7.553  0.00  0.00    +0.000 C 
ATOM     11  C   UNL     1     -16.733  12.085  -6.162  0.00  0.00    +0.000 C 
BRANCH  10  12
ATOM     12  O   UNL     1     -16.773  11.646  -8.516  0.00  0.00    +0.000 OA
ATOM     13  H   UNL     1     -15.967  11.685  -9.058  0.00  0.00    +0.000 HD
ENDBRANCH  10  12
ENDBRANCH   9  10
ENDBRANCH   1   9
BRANCH   1  14
ATOM     14  C   UNL     1     -17.087  16.018  -7.310  0.00  0.00    +0.000 C 
BRANCH  14  15
ATOM     15  C   UNL     1     -15.555  16.236  -7.264  0.00  0.00    +0.000 C 
ATOM     16  C   UNL     1     -14.867  15.427  -6.171  0.00  0.00    +0.000 C 
BRANCH  15  17
ATOM     17  O   UNL     1     -14.939  15.911  -8.509  0.00  0.00    +0.000 OA
ATOM     18  H   UNL     1     -14.465  15.071  -8.345  0.00  0.00    +0.000 HD
ENDBRANCH  15  17
ENDBRANCH  14  15
ENDBRANCH   1  14
TORSDOF 7
ENDMDL
