MODEL 1
REMARK VINA RESULT:    -3.370      0.000      0.000
REMARK INTER + INTRA:          -3.712
REMARK INTER:                  -3.666
REMARK INTRA:                  -0.047
REMARK UNBOUND:                -0.047
REMARK  Name = 
REMARK  3 active torsions:
REMARK  status: ('A' for Active; 'I' for Inactive)
REMARK    1  A    between atoms: C_1  and  O_2
REMARK    2  A    between atoms: O_2  and  C_3
REMARK    3  A    between atoms: C_8  and  O_9
REMARK                            x       y       z     vdW  Elec       q    Type
REMARK                         _______ _______ _______ _____ _____    ______ ____
ROOT
ATOM      1  C   UNL     1     -16.831  11.237 -23.281  0.00  0.00    +0.000 A 
ATOM      2  C   UNL     1     -18.006  11.916 -23.600  0.00  0.00    +0.000 A 
ATOM      3  C   UNL     1     -19.192  11.623 -22.915  0.00  0.00    +0.000 A 
ATOM      4  C   UNL     1     -19.207  10.653 -21.910  0.00  0.00    +0.000 A 
ATOM      5  C   UNL     1     -18.037   9.971 -21.585  0.00  0.00    +0.000 A 
ATOM      6  C   UNL     1     -16.866  10.268 -22.270  0.00  0.00    +0.000 A 
ENDROOT
BRANCH   1   8
ATOM      7  C   UNL     1     -15.584  11.490 -25.288  0.00  0.00    +0.000 C 
ATOM      8  O   UNL     1     -15.604  11.420 -23.867  0.00  0.00    +0.000 OA
ENDBRANCH   1   8
BRANCH   6   9
ATOM      9  O   UNL     1     -15.728   9.585 -21.933  0.00  0.00    +0.000 OA
ATOM     10  H   UNL     1     -14.997  10.180 -22.186  0.00  0.00    +0.000 HD
ENDBRANCH   6   9
TORSDOF 2
ENDMDL
MODEL 2
REMARK VINA RESULT:    -3.150      1.441      3.142
REMARK INTER + INTRA:          -3.473
REMARK INTER:                  -3.425
REMARK INTRA:                  -0.048
REMARK UNBOUND:                -0.047
REMARK  Name = 
REMARK  3 active torsions:
REMARK  status: ('A' for Active; 'I' for Inactive)
REMARK    1  A    between atoms: C_1  and  O_2
REMARK    2  A    between atoms: O_2  and  C_3
REMARK    3  A    between atoms: C_8  and  O_9
REMARK                            x       y       z     vdW  Elec       q    Type
REMARK                         _______ _______ _______ _____ _____    ______ ____
ROOT
ATOM      1  C   UNL     1     -18.127  11.052 -22.540  0.00  0.00    +0.000 A 
ATOM      2  C   UNL     1     -18.798  12.037 -23.263  0.00  0.00    +0.000 A 
ATOM      3  C   UNL     1     -18.117  12.774 -24.241  0.00  0.00    +0.000 A 
ATOM      4  C   UNL     1     -16.767  12.531 -24.497  0.00  0.00    +0.000 A 
ATOM      5  C   UNL     1     -16.089  11.548 -23.779  0.00  0.00    +0.000 A 
ATOM      6  C   UNL     1     -16.773  10.822 -22.811  0.00  0.00    +0.000 A 
ENDROOT
BRANCH   1   8
ATOM      7  C   UNL     1     -19.390  10.924 -20.531  0.00  0.00    +0.000 C 
ATOM      8  O   UNL     1     -18.665  10.259 -21.559  0.00  0.00    +0.000 OA
ENDBRANCH   1   8
BRANCH   6   9
ATOM      9  O   UNL     1     -16.086   9.862 -22.118  0.00  0.00    +0.000 OA
ATOM     10  H   UNL     1     -15.148  10.017 -22.341  0.00  0.00    +0.000 HD
ENDBRANCH   6   9
TORSDOF 2
ENDMDL
MODEL 3
REMARK VINA RESULT:    -2.971      3.377      4.388
REMARK INTER + INTRA:          -3.278
REMARK INTER:                  -3.231
REMARK INTRA:                  -0.048
REMARK UNBOUND:                -0.047
REMARK  Name = 
REMARK  3 active torsions:
REMARK  status: ('A' for Active; 'I' for Inactive)
REMARK    1  A    between atoms: C_1  and  O_2
REMARK    2  A    between atoms: O_2  and  C_3
REMARK    3  A    between atoms: C_8  and  O_9
REMARK                            x       y       z     vdW  Elec       q    Type
REMARK                         _______ _______ _______ _____ _____    ______ ____
ROOT
ATOM      1  C   UNL     1     -19.546  12.745 -22.779  0.00  0.00    +0.000 A 
ATOM      2  C   UNL     1     -19.317  12.999 -24.130  0.00  0.00    +0.000 A 
ATOM      3  C   UNL     1     -19.475  14.296 -24.635  0.00  0.00    +0.000 A 
ATOM      4  C   UNL     1     -19.861  15.340 -23.793  0.00  0.00    +0.000 A 
ATOM      5  C   UNL     1     -20.091  15.094 -22.442  0.00  0.00    +0.000 A 
ATOM      6  C   UNL     1     -19.933  13.805 -21.950  0.00  0.00    +0.000 A 
ENDROOT
BRANCH   1   8
ATOM      7  C   UNL     1     -18.235  10.800 -22.396  0.00  0.00    +0.000 C 
ATOM      8  O   UNL     1     -19.431  11.530 -22.151  0.00  0.00    +0.000 OA
ENDBRANCH   1   8
BRANCH   6   9
ATOM      9  O   UNL     1     -20.165  13.588 -20.618  0.00  0.00    +0.000 OA
ATOM     10  H   UNL     1     -21.085  13.265 -20.575  0.00  0.00    +0.000 HD
ENDBRANCH   6   9
TORSDOF 2
ENDMDL
MODEL 4
REMARK VINA RESULT:    -2.961      1.199      1.968
REMARK INTER + INTRA:          -3.267
REMARK INTER:                  -3.222
REMARK INTRA:                  -0.045
REMARK UNBOUND:                -0.047
REMARK  Name = 
REMARK  3 active torsions:
REMARK  status: ('A' for Active; 'I' for Inactive)
REMARK    1  A    between atoms: C_1  and  O_2
REMARK    2  A    between atoms: O_2  and  C_3
REMARK    3  A    between atoms: C_8  and  O_9
REMARK                            x       y       z     vdW  Elec       q    Type
REMARK                         _______ _______ _______ _____ _____    ______ ____
ROOT
ATOM      1  C   UNL     1     -17.930  11.736 -23.439  0.00  0.00    +0.000 A 
ATOM      2  C   UNL     1     -19.118  11.658 -22.715  0.00  0.00    +0.000 A 
ATOM      3  C   UNL     1     -19.240  10.737 -21.667  0.00  0.00    +0.000 A 
ATOM      4  C   UNL     1     -18.177   9.891 -21.341  0.00  0.00    +0.000 A 
ATOM      5  C   UNL     1     -16.986   9.964 -22.060  0.00  0.00    +0.000 A 
ATOM      6  C   UNL     1     -16.875  10.880 -23.098  0.00  0.00    +0.000 A 
ENDROOT
BRANCH   1   8
ATOM      7  C   UNL     1     -18.136  13.922 -24.347  0.00  0.00    +0.000 C 
ATOM      8  O   UNL     1     -17.672  12.585 -24.485  0.00  0.00    +0.000 OA
ENDBRANCH   1   8
BRANCH   6   9
ATOM      9  O   UNL     1     -15.695  10.932 -23.790  0.00  0.00    +0.000 OA
ATOM     10  H   UNL     1     -15.294  10.051 -23.665  0.00  0.00    +0.000 HD
ENDBRANCH   6   9
TORSDOF 2
ENDMDL
MODEL 5
REMARK VINA RESULT:    -2.950     14.870     16.047
REMARK INTER + INTRA:          -3.255
REMARK INTER:                  -3.212
REMARK INTRA:                  -0.043
REMARK UNBOUND:                -0.047
REMARK  Name = 
REMARK  3 active torsions:
REMARK  status: ('A' for Active; 'I' for Inactive)
REMARK    1  A    between atoms: C_1  and  O_2
REMARK    2  A    between atoms: O_2  and  C_3
REMARK    3  A    between atoms: C_8  and  O_9
REMARK                            x       y       z     vdW  Elec       q    Type
REMARK                         _______ _______ _______ _____ _____    ______ ____
ROOT
ATOM      1  C   UNL     1     -17.600  12.900  -7.278  0.00  0.00    +0.000 A 
ATOM      2  C   UNL     1     -18.225  13.102  -6.049  0.00  0.00    +0.000 A 
ATOM      3  C   UNL     1     -19.031  14.230  -5.850  0.00  0.00    +0.000 A 
ATOM      4  C   UNL     1     -19.214  15.159  -6.876  0.00  0.00    +0.000 A 
ATOM      5  C   UNL     1     -18.593  14.964  -8.108  0.00  0.00    +0.000 A 
ATOM      6  C   UNL     1     -17.796  13.843  -8.296  0.00  0.00    +0.000 A 
ENDROOT
BRANCH   1   8
ATOM      7  C   UNL     1     -15.915  11.371  -6.594  0.00  0.00    +0.000 C 
ATOM      8  O   UNL     1     -16.787  11.847  -7.612  0.00  0.00    +0.000 OA
ENDBRANCH   1   8
BRANCH   6   9
ATOM      9  O   UNL     1     -17.196  13.673  -9.515  0.00  0.00    +0.000 OA
ATOM     10  H   UNL     1     -16.381  14.210  -9.468  0.00  0.00    +0.000 HD
ENDBRANCH   6   9
TORSDOF 2
ENDMDL
MODEL 6
REMARK VINA RESULT:    -2.948     16.624     17.014
REMARK INTER + INTRA:          -3.253
REMARK INTER:                  -3.215
REMARK INTRA:                  -0.038
REMARK UNBOUND:                -0.047
REMARK  Name = 
REMARK  3 active torsions:
REMARK  status: ('A' for Active; 'I' for Inactive)
REMARK    1  A    between atoms: C_1  and  O_2
REMARK    2  A    between atoms: O_2  and  C_3
REMARK    3  A    between atoms: C_8  and  O_9
REMARK                            x       y       z     vdW  Elec       q    Type
REMARK                         _______ _______ _______ _____ _____    ______ ____
ROOT
ATOM      1  C   UNL     1     -15.165  13.782  -6.137  0.00  0.00    +0.000 A 
ATOM      2  C   UNL     1     -16.296  14.544  -6.427  0.00  0.00    +0.000 A 
ATOM      3  C   UNL     1     -17.514  13.909  -6.704  0.00  0.00    +0.000 A 
ATOM      4  C   UNL     1     -17.605  12.516  -6.693  0.00  0.00    +0.000 A 
ATOM      5  C   UNL     1     -16.479  11.749  -6.404  0.00  0.00    +0.000 A 
ATOM      6  C   UNL     1     -15.276  12.386  -6.131  0.00  0.00    +0.000 A 
ENDROOT
BRANCH   1   8
ATOM      7  C   UNL     1     -13.659  15.619  -6.206  0.00  0.00    +0.000 C 
ATOM      8  O   UNL     1     -13.914  14.266  -5.850  0.00  0.00    +0.000 OA
ENDBRANCH   1   8
BRANCH   6   9
ATOM      9  O   UNL     1     -14.183  11.611  -5.850  0.00  0.00    +0.000 OA
ATOM     10  H   UNL     1     -13.832  11.349  -6.722  0.00  0.00    +0.000 HD
ENDBRANCH   6   9
TORSDOF 2
ENDMDL
MODEL 7
REMARK VINA RESULT:    -2.932     14.813     15.817
REMARK INTER + INTRA:          -3.236
REMARK INTER:                  -3.198
REMARK INTRA:                  -0.038
REMARK UNBOUND:                -0.047
REMARK  Name = 
REMARK  3 active torsions:
REMARK  status: ('A' for Active; 'I' for Inactive)
REMARK    1  A    between atoms: C_1  and  O_2
REMARK    2  A    between atoms: O_2  and  C_3
REMARK    3  A    between atoms: C_8  and  O_9
REMARK                            x       y       z     vdW  Elec       q    Type
REMARK                         _______ _______ _______ _____ _____    ______ ____
ROOT
ATOM      1  C   UNL     1     -16.904  14.262  -8.072  0.00  0.00    +0.000 A 
ATOM      2  C   UNL     1     -16.137  15.273  -7.497  0.00  0.00    +0.000 A 
ATOM      3  C   UNL     1     -15.328  14.994  -6.388  0.00  0.00    +0.000 A 
ATOM      4  C   UNL     1     -15.285  13.706  -5.850  0.00  0.00    +0.000 A 
ATOM      5  C   UNL     1     -16.049  12.690  -6.419  0.00  0.00    +0.000 A 
ATOM      6  C   UNL     1     -16.848  12.976  -7.519  0.00  0.00    +0.000 A 
ENDROOT
BRANCH   1   8
ATOM      7  C   UNL     1     -17.612  15.589  -9.912  0.00  0.00    +0.000 C 
ATOM      8  O   UNL     1     -17.737  14.391  -9.154  0.00  0.00    +0.000 OA
ENDBRANCH   1   8
BRANCH   6   9
ATOM      9  O   UNL     1     -17.590  11.961  -8.060  0.00  0.00    +0.000 OA
ATOM     10  H   UNL     1     -18.332  11.837  -7.439  0.00  0.00    +0.000 HD
ENDBRANCH   6   9
TORSDOF 2
ENDMDL
MODEL 8
REMARK VINA RESULT:    -2.921      2.631      4.200
REMARK INTER + INTRA:          -3.224
REMARK INTER:                  -3.181
REMARK INTRA:                  -0.043
REMARK UNBOUND:                -0.047
REMARK  Name = 
REMARK  3 active torsions:
REMARK  status: ('A' for Active; 'I' for Inactive)
REMARK    1  A    between atoms: C_1  and  O_2
REMARK    2  A    between atoms: O_2  and  C_3
REMARK    3  A    between atoms: C_8  and  O_9
REMARK                            x       y       z     vdW  Elec       q    Type
REMARK                         _______ _______ _______ _____ _____    ______ ____
ROOT
ATOM      1  C   UNL     1     -19.512  12.351 -22.840  0.00  0.00    +0.000 A 
ATOM      2  C   UNL     1     -19.949  13.414 -22.052  0.00  0.00    +0.000 A 
ATOM      3  C   UNL     1     -19.930  14.718 -22.564  0.00  0.00    +0.000 A 
ATOM      4  C   UNL     1     -19.474  14.963 -23.860  0.00  0.00    +0.000 A 
ATOM      5  C   UNL     1     -19.036  13.905 -24.654  0.00  0.00    +0.000 A 
ATOM      6  C   UNL     1     -19.059  12.616 -24.138  0.00  0.00    +0.000 A 
ENDROOT
BRANCH   1   8
ATOM      7  C   UNL     1     -19.161  10.759 -21.111  0.00  0.00    +0.000 C 
ATOM      8  O   UNL     1     -19.475  11.030 -22.471  0.00  0.00    +0.000 OA
ENDBRANCH   1   8
BRANCH   6   9
ATOM      9  O   UNL     1     -18.623  11.592 -24.937  0.00  0.00    +0.000 OA
ATOM     10  H   UNL     1     -19.421  11.060 -25.116  0.00  0.00    +0.000 HD
ENDBRANCH   6   9
TORSDOF 2
ENDMDL
MODEL 9
REMARK VINA RESULT:    -2.905      1.309      2.901
REMARK INTER + INTRA:          -3.206
REMARK INTER:                  -3.155
REMARK INTRA:                  -0.051
REMARK UNBOUND:                -0.047
REMARK  Name = 
REMARK  3 active torsions:
REMARK  status: ('A' for Active; 'I' for Inactive)
REMARK    1  A    between atoms: C_1  and  O_2
REMARK    2  A    between atoms: O_2  and  C_3
REMARK    3  A    between atoms: C_8  and  O_9
REMARK                            x       y       z     vdW  Elec       q    Type
REMARK                         _______ _______ _______ _____ _____    ______ ____
ROOT
ATOM      1  C   UNL     1     -17.969  10.864 -22.834  0.00  0.00    +0.000 A 
ATOM      2  C   UNL     1     -19.055  11.499 -22.234  0.00  0.00    +0.000 A 
ATOM      3  C   UNL     1     -19.423  12.788 -22.640  0.00  0.00    +0.000 A 
ATOM      4  C   UNL     1     -18.709  13.445 -23.644  0.00  0.00    +0.000 A 
ATOM      5  C   UNL     1     -17.622  12.817 -24.248  0.00  0.00    +0.000 A 
ATOM      6  C   UNL     1     -17.264  11.539 -23.839  0.00  0.00    +0.000 A 
ENDROOT
BRANCH   1   8
ATOM      7  C   UNL     1     -16.853   9.455 -21.280  0.00  0.00    +0.000 C 
ATOM      8  O   UNL     1     -17.498   9.610 -22.538  0.00  0.00    +0.000 OA
ENDBRANCH   1   8
BRANCH   6   9
ATOM      9  O   UNL     1     -16.193  10.942 -24.448  0.00  0.00    +0.000 OA
ATOM     10  H   UNL     1     -16.560  10.538 -25.257  0.00  0.00    +0.000 HD
ENDBRANCH   6   9
TORSDOF 2
ENDMDL
