MODEL 1
REMARK VINA RESULT:    -3.375      0.000      0.000
REMARK INTER + INTRA:          -3.717
REMARK INTER:                  -3.671
REMARK INTRA:                  -0.047
REMARK UNBOUND:                -0.047
REMARK  Name = 
REMARK  3 active torsions:
REMARK  status: ('A' for Active; 'I' for Inactive)
REMARK    1  A    between atoms: C_1  and  O_2
REMARK    2  A    between atoms: O_2  and  C_3
REMARK    3  A    between atoms: C_8  and  O_9
REMARK                            x       y       z     vdW  Elec       q    Type
REMARK                         _______ _______ _______ _____ _____    ______ ____
ROOT
ATOM      1  C   UNL     1     -16.846  11.226 -23.312  0.00  0.00    +0.000 A 
ATOM      2  C   UNL     1     -18.040  11.867 -23.641  0.00  0.00    +0.000 A 
ATOM      3  C   UNL     1     -19.217  11.552 -22.949  0.00  0.00    +0.000 A 
ATOM      4  C   UNL     1     -19.205  10.599 -21.930  0.00  0.00    +0.000 A 
ATOM      5  C   UNL     1     -18.016   9.955 -21.595  0.00  0.00    +0.000 A 
ATOM      6  C   UNL     1     -16.854  10.272 -22.287  0.00  0.00    +0.000 A 
ENDROOT
BRANCH   1   8
ATOM      7  C   UNL     1     -15.607  11.472 -25.325  0.00  0.00    +0.000 C 
ATOM      8  O   UNL     1     -15.625  11.432 -23.903  0.00  0.00    +0.000 OA
ENDBRANCH   1   8
BRANCH   6   9
ATOM      9  O   UNL     1     -15.698   9.625 -21.940  0.00  0.00    +0.000 OA
ATOM     10  H   UNL     1     -15.829   9.366 -21.008  0.00  0.00    +0.000 HD
ENDBRANCH   6   9
TORSDOF 2
ENDMDL
MODEL 2
REMARK VINA RESULT:    -3.195      6.521      8.557
REMARK INTER + INTRA:          -3.522
REMARK INTER:                  -3.479
REMARK INTRA:                  -0.043
REMARK UNBOUND:                -0.047
REMARK  Name = 
REMARK  3 active torsions:
REMARK  status: ('A' for Active; 'I' for Inactive)
REMARK    1  A    between atoms: C_1  and  O_2
REMARK    2  A    between atoms: O_2  and  C_3
REMARK    3  A    between atoms: C_8  and  O_9
REMARK                            x       y       z     vdW  Elec       q    Type
REMARK                         _______ _______ _______ _____ _____    ______ ____
ROOT
ATOM      1  C   UNL     1     -10.572  10.199 -26.841  0.00  0.00    +0.000 A 
ATOM      2  C   UNL     1     -10.283  10.999 -27.946  0.00  0.00    +0.000 A 
ATOM      3  C   UNL     1      -9.121  11.781 -27.959  0.00  0.00    +0.000 A 
ATOM      4  C   UNL     1      -8.246  11.767 -26.872  0.00  0.00    +0.000 A 
ATOM      5  C   UNL     1      -8.527  10.970 -25.764  0.00  0.00    +0.000 A 
ATOM      6  C   UNL     1      -9.682  10.198 -25.759  0.00  0.00    +0.000 A 
ENDROOT
BRANCH   1   8
ATOM      7  C   UNL     1     -12.897   9.879 -27.212  0.00  0.00    +0.000 C 
ATOM      8  O   UNL     1     -11.668   9.388 -26.691  0.00  0.00    +0.000 OA
ENDBRANCH   1   8
BRANCH   6   9
ATOM      9  O   UNL     1      -9.937   9.423 -24.660  0.00  0.00    +0.000 OA
ATOM     10  H   UNL     1     -10.004  10.056 -23.920  0.00  0.00    +0.000 HD
ENDBRANCH   6   9
TORSDOF 2
ENDMDL
MODEL 3
REMARK VINA RESULT:    -3.138      1.474      3.150
REMARK INTER + INTRA:          -3.460
REMARK INTER:                  -3.410
REMARK INTRA:                  -0.050
REMARK UNBOUND:                -0.047
REMARK  Name = 
REMARK  3 active torsions:
REMARK  status: ('A' for Active; 'I' for Inactive)
REMARK    1  A    between atoms: C_1  and  O_2
REMARK    2  A    between atoms: O_2  and  C_3
REMARK    3  A    between atoms: C_8  and  O_9
REMARK                            x       y       z     vdW  Elec       q    Type
REMARK                         _______ _______ _______ _____ _____    ______ ____
ROOT
ATOM      1  C   UNL     1     -18.150  11.057 -22.577  0.00  0.00    +0.000 A 
ATOM      2  C   UNL     1     -18.790  12.043 -23.325  0.00  0.00    +0.000 A 
ATOM      3  C   UNL     1     -18.073  12.768 -24.286  0.00  0.00    +0.000 A 
ATOM      4  C   UNL     1     -16.718  12.511 -24.500  0.00  0.00    +0.000 A 
ATOM      5  C   UNL     1     -16.071  11.527 -23.756  0.00  0.00    +0.000 A 
ATOM      6  C   UNL     1     -16.790  10.813 -22.806  0.00  0.00    +0.000 A 
ENDROOT
BRANCH   1   8
ATOM      7  C   UNL     1     -19.374  10.957 -20.543  0.00  0.00    +0.000 C 
ATOM      8  O   UNL     1     -18.724  10.274 -21.608  0.00  0.00    +0.000 OA
ENDBRANCH   1   8
BRANCH   6   9
ATOM      9  O   UNL     1     -16.133   9.850 -22.087  0.00  0.00    +0.000 OA
ATOM     10  H   UNL     1     -16.076   9.085 -22.690  0.00  0.00    +0.000 HD
ENDBRANCH   6   9
TORSDOF 2
ENDMDL
MODEL 4
REMARK VINA RESULT:    -3.068     15.166     16.288
REMARK INTER + INTRA:          -3.384
REMARK INTER:                  -3.332
REMARK INTRA:                  -0.052
REMARK UNBOUND:                -0.047
REMARK  Name = 
REMARK  3 active torsions:
REMARK  status: ('A' for Active; 'I' for Inactive)
REMARK    1  A    between atoms: C_1  and  O_2
REMARK    2  A    between atoms: O_2  and  C_3
REMARK    3  A    between atoms: C_8  and  O_9
REMARK                            x       y       z     vdW  Elec       q    Type
REMARK                         _______ _______ _______ _____ _____    ______ ____
ROOT
ATOM      1  C   UNL     1     -16.149  13.992  -6.911  0.00  0.00    +0.000 A 
ATOM      2  C   UNL     1     -15.438  13.346  -5.901  0.00  0.00    +0.000 A 
ATOM      3  C   UNL     1     -15.392  11.947  -5.862  0.00  0.00    +0.000 A 
ATOM      4  C   UNL     1     -16.056  11.190  -6.830  0.00  0.00    +0.000 A 
ATOM      5  C   UNL     1     -16.769  11.828  -7.842  0.00  0.00    +0.000 A 
ATOM      6  C   UNL     1     -16.808  13.216  -7.873  0.00  0.00    +0.000 A 
ENDROOT
BRANCH   1   8
ATOM      7  C   UNL     1     -15.108  16.057  -7.457  0.00  0.00    +0.000 C 
ATOM      8  O   UNL     1     -16.279  15.348  -7.072  0.00  0.00    +0.000 OA
ENDBRANCH   1   8
BRANCH   6   9
ATOM      9  O   UNL     1     -17.515  13.821  -8.878  0.00  0.00    +0.000 OA
ATOM     10  H   UNL     1     -16.964  13.702  -9.675  0.00  0.00    +0.000 HD
ENDBRANCH   6   9
TORSDOF 2
ENDMDL
MODEL 5
REMARK VINA RESULT:    -2.984      1.188      1.981
REMARK INTER + INTRA:          -3.293
REMARK INTER:                  -3.254
REMARK INTRA:                  -0.038
REMARK UNBOUND:                -0.047
REMARK  Name = 
REMARK  3 active torsions:
REMARK  status: ('A' for Active; 'I' for Inactive)
REMARK    1  A    between atoms: C_1  and  O_2
REMARK    2  A    between atoms: O_2  and  C_3
REMARK    3  A    between atoms: C_8  and  O_9
REMARK                            x       y       z     vdW  Elec       q    Type
REMARK                         _______ _______ _______ _____ _____    ______ ____
ROOT
ATOM      1  C   UNL     1     -17.827  11.832 -23.475  0.00  0.00    +0.000 A 
ATOM      2  C   UNL     1     -19.004  11.766 -22.731  0.00  0.00    +0.000 A 
ATOM      3  C   UNL     1     -19.131  10.821 -21.705  0.00  0.00    +0.000 A 
ATOM      4  C   UNL     1     -18.086   9.940 -21.421  0.00  0.00    +0.000 A 
ATOM      5  C   UNL     1     -16.907  10.001 -22.159  0.00  0.00    +0.000 A 
ATOM      6  C   UNL     1     -16.789  10.941 -23.175  0.00  0.00    +0.000 A 
ENDROOT
BRANCH   1   8
ATOM      7  C   UNL     1     -18.402  13.849 -24.592  0.00  0.00    +0.000 C 
ATOM      8  O   UNL     1     -17.566  12.702 -24.503  0.00  0.00    +0.000 OA
ENDBRANCH   1   8
BRANCH   6   9
ATOM      9  O   UNL     1     -15.621  10.981 -23.887  0.00  0.00    +0.000 OA
ATOM     10  H   UNL     1     -15.639  11.842 -24.347  0.00  0.00    +0.000 HD
ENDBRANCH   6   9
TORSDOF 2
ENDMDL
MODEL 6
REMARK VINA RESULT:    -2.950      2.208      3.641
REMARK INTER + INTRA:          -3.256
REMARK INTER:                  -3.205
REMARK INTRA:                  -0.051
REMARK UNBOUND:                -0.047
REMARK  Name = 
REMARK  3 active torsions:
REMARK  status: ('A' for Active; 'I' for Inactive)
REMARK    1  A    between atoms: C_1  and  O_2
REMARK    2  A    between atoms: O_2  and  C_3
REMARK    3  A    between atoms: C_8  and  O_9
REMARK                            x       y       z     vdW  Elec       q    Type
REMARK                         _______ _______ _______ _____ _____    ______ ____
ROOT
ATOM      1  C   UNL     1     -19.295  12.088 -22.902  0.00  0.00    +0.000 A 
ATOM      2  C   UNL     1     -19.308  11.290 -21.759  0.00  0.00    +0.000 A 
ATOM      3  C   UNL     1     -18.319  10.315 -21.575  0.00  0.00    +0.000 A 
ATOM      4  C   UNL     1     -17.317  10.134 -22.530  0.00  0.00    +0.000 A 
ATOM      5  C   UNL     1     -17.297  10.928 -23.674  0.00  0.00    +0.000 A 
ATOM      6  C   UNL     1     -18.282  11.892 -23.849  0.00  0.00    +0.000 A 
ENDROOT
BRANCH   1   8
ATOM      7  C   UNL     1     -20.136  14.259 -22.426  0.00  0.00    +0.000 C 
ATOM      8  O   UNL     1     -20.195  13.075 -23.213  0.00  0.00    +0.000 OA
ENDBRANCH   1   8
BRANCH   6   9
ATOM      9  O   UNL     1     -18.241  12.660 -24.982  0.00  0.00    +0.000 OA
ATOM     10  H   UNL     1     -19.166  12.935 -25.129  0.00  0.00    +0.000 HD
ENDBRANCH   6   9
TORSDOF 2
ENDMDL
MODEL 7
REMARK VINA RESULT:    -2.949      9.844     10.793
REMARK INTER + INTRA:          -3.255
REMARK INTER:                  -3.217
REMARK INTRA:                  -0.038
REMARK UNBOUND:                -0.047
REMARK  Name = 
REMARK  3 active torsions:
REMARK  status: ('A' for Active; 'I' for Inactive)
REMARK    1  A    between atoms: C_1  and  O_2
REMARK    2  A    between atoms: O_2  and  C_3
REMARK    3  A    between atoms: C_8  and  O_9
REMARK                            x       y       z     vdW  Elec       q    Type
REMARK                         _______ _______ _______ _____ _____    ______ ____
ROOT
ATOM      1  C   UNL     1     -18.039  14.912 -12.876  0.00  0.00    +0.000 A 
ATOM      2  C   UNL     1     -18.300  16.253 -13.159  0.00  0.00    +0.000 A 
ATOM      3  C   UNL     1     -18.768  16.621 -14.427  0.00  0.00    +0.000 A 
ATOM      4  C   UNL     1     -18.976  15.656 -15.413  0.00  0.00    +0.000 A 
ATOM      5  C   UNL     1     -18.719  14.315 -15.137  0.00  0.00    +0.000 A 
ATOM      6  C   UNL     1     -18.254  13.958 -13.878  0.00  0.00    +0.000 A 
ENDROOT
BRANCH   1   8
ATOM      7  C   UNL     1     -17.549  15.311 -10.585  0.00  0.00    +0.000 C 
ATOM      8  O   UNL     1     -17.580  14.410 -11.685  0.00  0.00    +0.000 OA
ENDBRANCH   1   8
BRANCH   6   9
ATOM      9  O   UNL     1     -18.009  12.634 -13.630  0.00  0.00    +0.000 OA
ATOM     10  H   UNL     1     -17.042  12.537 -13.732  0.00  0.00    +0.000 HD
ENDBRANCH   6   9
TORSDOF 2
ENDMDL
MODEL 8
REMARK VINA RESULT:    -2.924     15.524     16.461
REMARK INTER + INTRA:          -3.227
REMARK INTER:                  -3.184
REMARK INTRA:                  -0.043
REMARK UNBOUND:                -0.047
REMARK  Name = 
REMARK  3 active torsions:
REMARK  status: ('A' for Active; 'I' for Inactive)
REMARK    1  A    between atoms: C_1  and  O_2
REMARK    2  A    between atoms: O_2  and  C_3
REMARK    3  A    between atoms: C_8  and  O_9
REMARK                            x       y       z     vdW  Elec       q    Type
REMARK                         _______ _______ _______ _____ _____    ______ ____
ROOT
ATOM      1  C   UNL     1     -16.762  13.978  -7.349  0.00  0.00    +0.000 A 
ATOM      2  C   UNL     1     -17.272  12.779  -7.845  0.00  0.00    +0.000 A 
ATOM      3  C   UNL     1     -16.797  11.558  -7.349  0.00  0.00    +0.000 A 
ATOM      4  C   UNL     1     -15.812  11.532  -6.359  0.00  0.00    +0.000 A 
ATOM      5  C   UNL     1     -15.298  12.726  -5.859  0.00  0.00    +0.000 A 
ATOM      6  C   UNL     1     -15.775  13.932  -6.357  0.00  0.00    +0.000 A 
ENDROOT
BRANCH   1   8
ATOM      7  C   UNL     1     -18.510  15.436  -8.032  0.00  0.00    +0.000 C 
ATOM      8  O   UNL     1     -17.132  15.240  -7.741  0.00  0.00    +0.000 OA
ENDBRANCH   1   8
BRANCH   6   9
ATOM      9  O   UNL     1     -15.254  15.092  -5.849  0.00  0.00    +0.000 OA
ATOM     10  H   UNL     1     -14.914  14.847  -4.968  0.00  0.00    +0.000 HD
ENDBRANCH   6   9
TORSDOF 2
ENDMDL
MODEL 9
REMARK VINA RESULT:    -2.891      2.643      4.156
REMARK INTER + INTRA:          -3.192
REMARK INTER:                  -3.139
REMARK INTRA:                  -0.052
REMARK UNBOUND:                -0.047
REMARK  Name = 
REMARK  3 active torsions:
REMARK  status: ('A' for Active; 'I' for Inactive)
REMARK    1  A    between atoms: C_1  and  O_2
REMARK    2  A    between atoms: O_2  and  C_3
REMARK    3  A    between atoms: C_8  and  O_9
REMARK                            x       y       z     vdW  Elec       q    Type
REMARK                         _______ _______ _______ _____ _____    ______ ____
ROOT
ATOM      1  C   UNL     1     -19.501  12.385 -22.918  0.00  0.00    +0.000 A 
ATOM      2  C   UNL     1     -19.887  13.442 -22.094  0.00  0.00    +0.000 A 
ATOM      3  C   UNL     1     -19.704  14.763 -22.520  0.00  0.00    +0.000 A 
ATOM      4  C   UNL     1     -19.136  15.034 -23.766  0.00  0.00    +0.000 A 
ATOM      5  C   UNL     1     -18.749  13.984 -24.595  0.00  0.00    +0.000 A 
ATOM      6  C   UNL     1     -18.933  12.676 -24.165  0.00  0.00    +0.000 A 
ENDROOT
BRANCH   1   8
ATOM      7  C   UNL     1     -18.886  10.573 -21.510  0.00  0.00    +0.000 C 
ATOM      8  O   UNL     1     -19.619  11.049 -22.632  0.00  0.00    +0.000 OA
ENDBRANCH   1   8
BRANCH   6   9
ATOM      9  O   UNL     1     -18.544  11.661 -24.997  0.00  0.00    +0.000 OA
ATOM     10  H   UNL     1     -19.376  11.220 -25.257  0.00  0.00    +0.000 HD
ENDBRANCH   6   9
TORSDOF 2
ENDMDL
