MODEL 1
REMARK VINA RESULT:    -4.148      0.000      0.000
REMARK INTER + INTRA:          -4.554
REMARK INTER:                  -4.512
REMARK INTRA:                  -0.042
REMARK UNBOUND:                -0.042
REMARK  Name = 
REMARK  3 active torsions:
REMARK  status: ('A' for Active; 'I' for Inactive)
REMARK    1  A    between atoms: C_1  and  O_2
REMARK    2  A    between atoms: O_2  and  C_3
REMARK    3  A    between atoms: C_8  and  O_9
REMARK                            x       y       z     vdW  Elec       q    Type
REMARK                         _______ _______ _______ _____ _____    ______ ____
ROOT
ATOM      1  C   UNL     1     -16.275  12.779  -8.238  0.00  0.00    +0.000 A 
ATOM      2  C   UNL     1     -17.027  13.145  -7.123  0.00  0.00    +0.000 A 
ATOM      3  C   UNL     1     -16.848  12.473  -5.907  0.00  0.00    +0.000 A 
ATOM      4  C   UNL     1     -15.920  11.435  -5.802  0.00  0.00    +0.000 A 
ATOM      5  C   UNL     1     -15.164  11.064  -6.911  0.00  0.00    +0.000 A 
ATOM      6  C   UNL     1     -15.349  11.736  -8.113  0.00  0.00    +0.000 A 
ENDROOT
BRANCH   1   8
ATOM      7  C   UNL     1     -16.660  14.732  -9.535  0.00  0.00    +0.000 C 
ATOM      8  O   UNL     1     -16.345  13.346  -9.485  0.00  0.00    +0.000 OA
ENDBRANCH   1   8
BRANCH   6   9
ATOM      9  O   UNL     1     -14.594  11.353  -9.190  0.00  0.00    +0.000 OA
ATOM     10  H   UNL     1     -13.686  11.638  -8.971  0.00  0.00    +0.000 HD
ENDBRANCH   6   9
TORSDOF 2
ENDMDL
MODEL 2
REMARK VINA RESULT:    -3.872     17.344     18.702
REMARK INTER + INTRA:          -4.253
REMARK INTER:                  -4.204
REMARK INTRA:                  -0.049
REMARK UNBOUND:                -0.042
REMARK  Name = 
REMARK  3 active torsions:
REMARK  status: ('A' for Active; 'I' for Inactive)
REMARK    1  A    between atoms: C_1  and  O_2
REMARK    2  A    between atoms: O_2  and  C_3
REMARK    3  A    between atoms: C_8  and  O_9
REMARK                            x       y       z     vdW  Elec       q    Type
REMARK                         _______ _______ _______ _____ _____    ______ ____
ROOT
ATOM      1  C   UNL     1     -10.548  15.980 -24.880  0.00  0.00    +0.000 A 
ATOM      2  C   UNL     1      -9.968  16.433 -26.064  0.00  0.00    +0.000 A 
ATOM      3  C   UNL     1      -9.775  15.547 -27.132  0.00  0.00    +0.000 A 
ATOM      4  C   UNL     1     -10.158  14.209 -27.020  0.00  0.00    +0.000 A 
ATOM      5  C   UNL     1     -10.739  13.749 -25.840  0.00  0.00    +0.000 A 
ATOM      6  C   UNL     1     -10.927  14.635 -24.786  0.00  0.00    +0.000 A 
ENDROOT
BRANCH   1   8
ATOM      7  C   UNL     1      -9.707  17.493 -23.253  0.00  0.00    +0.000 C 
ATOM      8  O   UNL     1     -10.796  16.732 -23.759  0.00  0.00    +0.000 OA
ENDBRANCH   1   8
BRANCH   6   9
ATOM      9  O   UNL     1     -11.499  14.160 -23.636  0.00  0.00    +0.000 OA
ATOM     10  H   UNL     1     -12.115  13.465 -23.935  0.00  0.00    +0.000 HD
ENDBRANCH   6   9
TORSDOF 2
ENDMDL
MODEL 3
REMARK VINA RESULT:    -3.850     17.829     19.490
REMARK INTER + INTRA:          -4.229
REMARK INTER:                  -4.177
REMARK INTRA:                  -0.053
REMARK UNBOUND:                -0.042
REMARK  Name = 
REMARK  3 active torsions:
REMARK  status: ('A' for Active; 'I' for Inactive)
REMARK    1  A    between atoms: C_1  and  O_2
REMARK    2  A    between atoms: O_2  and  C_3
REMARK    3  A    between atoms: C_8  and  O_9
REMARK                            x       y       z     vdW  Elec       q    Type
REMARK                         _______ _______ _______ _____ _____    ______ ____
ROOT
ATOM      1  C   UNL     1     -10.188  14.418 -26.571  0.00  0.00    +0.000 A 
ATOM      2  C   UNL     1      -9.891  15.648 -27.155  0.00  0.00    +0.000 A 
ATOM      3  C   UNL     1     -10.031  16.828 -26.412  0.00  0.00    +0.000 A 
ATOM      4  C   UNL     1     -10.469  16.782 -25.087  0.00  0.00    +0.000 A 
ATOM      5  C   UNL     1     -10.767  15.556 -24.496  0.00  0.00    +0.000 A 
ATOM      6  C   UNL     1     -10.625  14.392 -25.240  0.00  0.00    +0.000 A 
ENDROOT
BRANCH   1   8
ATOM      7  C   UNL     1      -8.792  12.750 -27.527  0.00  0.00    +0.000 C 
ATOM      8  O   UNL     1     -10.098  13.190 -27.175  0.00  0.00    +0.000 OA
ENDBRANCH   1   8
BRANCH   6   9
ATOM      9  O   UNL     1     -10.925  13.199 -24.638  0.00  0.00    +0.000 OA
ATOM     10  H   UNL     1     -10.447  13.224 -23.787  0.00  0.00    +0.000 HD
ENDBRANCH   6   9
TORSDOF 2
ENDMDL
MODEL 4
REMARK VINA RESULT:    -3.827      1.257      3.048
REMARK INTER + INTRA:          -4.204
REMARK INTER:                  -4.153
REMARK INTRA:                  -0.051
REMARK UNBOUND:                -0.042
REMARK  Name = 
REMARK  3 active torsions:
REMARK  status: ('A' for Active; 'I' for Inactive)
REMARK    1  A    between atoms: C_1  and  O_2
REMARK    2  A    between atoms: O_2  and  C_3
REMARK    3  A    between atoms: C_8  and  O_9
REMARK                            x       y       z     vdW  Elec       q    Type
REMARK                         _______ _______ _______ _____ _____    ______ ____
ROOT
ATOM      1  C   UNL     1     -15.518  11.678  -6.998  0.00  0.00    +0.000 A 
ATOM      2  C   UNL     1     -16.280  12.499  -6.168  0.00  0.00    +0.000 A 
ATOM      3  C   UNL     1     -17.039  13.539  -6.719  0.00  0.00    +0.000 A 
ATOM      4  C   UNL     1     -17.038  13.763  -8.097  0.00  0.00    +0.000 A 
ATOM      5  C   UNL     1     -16.280  12.946  -8.933  0.00  0.00    +0.000 A 
ATOM      6  C   UNL     1     -15.530  11.917  -8.378  0.00  0.00    +0.000 A 
ENDROOT
BRANCH   1   8
ATOM      7  C   UNL     1     -13.540  10.959  -5.895  0.00  0.00    +0.000 C 
ATOM      8  O   UNL     1     -14.731  10.627  -6.599  0.00  0.00    +0.000 OA
ENDBRANCH   1   8
BRANCH   6   9
ATOM      9  O   UNL     1     -14.792  11.128  -9.220  0.00  0.00    +0.000 OA
ATOM     10  H   UNL     1     -15.078  10.216  -9.020  0.00  0.00    +0.000 HD
ENDBRANCH   6   9
TORSDOF 2
ENDMDL
MODEL 5
REMARK VINA RESULT:    -3.491     18.182     19.627
REMARK INTER + INTRA:          -3.838
REMARK INTER:                  -3.814
REMARK INTRA:                  -0.024
REMARK UNBOUND:                -0.042
REMARK  Name = 
REMARK  3 active torsions:
REMARK  status: ('A' for Active; 'I' for Inactive)
REMARK    1  A    between atoms: C_1  and  O_2
REMARK    2  A    between atoms: O_2  and  C_3
REMARK    3  A    between atoms: C_8  and  O_9
REMARK                            x       y       z     vdW  Elec       q    Type
REMARK                         _______ _______ _______ _____ _____    ______ ____
ROOT
ATOM      1  C   UNL     1     -10.282  14.130 -26.497  0.00  0.00    +0.000 A 
ATOM      2  C   UNL     1     -10.851  13.792 -25.270  0.00  0.00    +0.000 A 
ATOM      3  C   UNL     1     -11.057  14.779 -24.298  0.00  0.00    +0.000 A 
ATOM      4  C   UNL     1     -10.695  16.104 -24.548  0.00  0.00    +0.000 A 
ATOM      5  C   UNL     1     -10.127  16.450 -25.772  0.00  0.00    +0.000 A 
ATOM      6  C   UNL     1      -9.926  15.465 -26.729  0.00  0.00    +0.000 A 
ENDROOT
BRANCH   1   8
ATOM      7  C   UNL     1      -8.848  12.477 -27.424  0.00  0.00    +0.000 C 
ATOM      8  O   UNL     1     -10.023  13.272 -27.535  0.00  0.00    +0.000 OA
ENDBRANCH   1   8
BRANCH   6   9
ATOM      9  O   UNL     1      -9.365  15.829 -27.925  0.00  0.00    +0.000 OA
ATOM     10  H   UNL     1      -8.595  16.377 -27.681  0.00  0.00    +0.000 HD
ENDBRANCH   6   9
TORSDOF 2
ENDMDL
MODEL 6
REMARK VINA RESULT:    -3.423     17.492     18.800
REMARK INTER + INTRA:          -3.765
REMARK INTER:                  -3.712
REMARK INTRA:                  -0.053
REMARK UNBOUND:                -0.042
REMARK  Name = 
REMARK  3 active torsions:
REMARK  status: ('A' for Active; 'I' for Inactive)
REMARK    1  A    between atoms: C_1  and  O_2
REMARK    2  A    between atoms: O_2  and  C_3
REMARK    3  A    between atoms: C_8  and  O_9
REMARK                            x       y       z     vdW  Elec       q    Type
REMARK                         _______ _______ _______ _____ _____    ______ ____
ROOT
ATOM      1  C   UNL     1     -10.563  16.249 -24.749  0.00  0.00    +0.000 A 
ATOM      2  C   UNL     1     -11.042  15.055 -24.212  0.00  0.00    +0.000 A 
ATOM      3  C   UNL     1     -11.012  13.881 -24.976  0.00  0.00    +0.000 A 
ATOM      4  C   UNL     1     -10.504  13.897 -26.277  0.00  0.00    +0.000 A 
ATOM      5  C   UNL     1     -10.023  15.086 -26.820  0.00  0.00    +0.000 A 
ATOM      6  C   UNL     1     -10.058  16.245 -26.055  0.00  0.00    +0.000 A 
ENDROOT
BRANCH   1   8
ATOM      7  C   UNL     1      -9.661  17.582 -23.002  0.00  0.00    +0.000 C 
ATOM      8  O   UNL     1     -10.533  17.467 -24.119  0.00  0.00    +0.000 OA
ENDBRANCH   1   8
BRANCH   6   9
ATOM      9  O   UNL     1      -9.580  17.401 -26.612  0.00  0.00    +0.000 OA
ATOM     10  H   UNL     1     -10.082  17.503 -27.443  0.00  0.00    +0.000 HD
ENDBRANCH   6   9
TORSDOF 2
ENDMDL
MODEL 7
REMARK VINA RESULT:    -3.395      6.639      7.926
REMARK INTER + INTRA:          -3.734
REMARK INTER:                  -3.689
REMARK INTRA:                  -0.046
REMARK UNBOUND:                -0.042
REMARK  Name = 
REMARK  3 active torsions:
REMARK  status: ('A' for Active; 'I' for Inactive)
REMARK    1  A    between atoms: C_1  and  O_2
REMARK    2  A    between atoms: O_2  and  C_3
REMARK    3  A    between atoms: C_8  and  O_9
REMARK                            x       y       z     vdW  Elec       q    Type
REMARK                         _______ _______ _______ _____ _____    ______ ____
ROOT
ATOM      1  C   UNL     1     -15.275  16.906 -13.515  0.00  0.00    +0.000 A 
ATOM      2  C   UNL     1     -15.555  17.718 -14.614  0.00  0.00    +0.000 A 
ATOM      3  C   UNL     1     -16.136  17.165 -15.762  0.00  0.00    +0.000 A 
ATOM      4  C   UNL     1     -16.438  15.803 -15.816  0.00  0.00    +0.000 A 
ATOM      5  C   UNL     1     -16.162  14.986 -14.723  0.00  0.00    +0.000 A 
ATOM      6  C   UNL     1     -15.585  15.543 -13.588  0.00  0.00    +0.000 A 
ENDROOT
BRANCH   1   8
ATOM      7  C   UNL     1     -13.595  18.190 -12.429  0.00  0.00    +0.000 C 
ATOM      8  O   UNL     1     -14.709  17.310 -12.332  0.00  0.00    +0.000 OA
ENDBRANCH   1   8
BRANCH   6   9
ATOM      9  O   UNL     1     -15.323  14.720 -12.526  0.00  0.00    +0.000 OA
ATOM     10  H   UNL     1     -14.385  14.469 -12.631  0.00  0.00    +0.000 HD
ENDBRANCH   6   9
TORSDOF 2
ENDMDL
MODEL 8
REMARK VINA RESULT:    -3.203     18.110     19.597
REMARK INTER + INTRA:          -3.526
REMARK INTER:                  -3.544
REMARK INTRA:                   0.018
REMARK UNBOUND:                -0.042
REMARK  Name = 
REMARK  3 active torsions:
REMARK  status: ('A' for Active; 'I' for Inactive)
REMARK    1  A    between atoms: C_1  and  O_2
REMARK    2  A    between atoms: O_2  and  C_3
REMARK    3  A    between atoms: C_8  and  O_9
REMARK                            x       y       z     vdW  Elec       q    Type
REMARK                         _______ _______ _______ _____ _____    ______ ____
ROOT
ATOM      1  C   UNL     1      -9.912  15.398 -26.707  0.00  0.00    +0.000 A 
ATOM      2  C   UNL     1     -10.283  16.370 -25.779  0.00  0.00    +0.000 A 
ATOM      3  C   UNL     1     -10.884  15.991 -24.572  0.00  0.00    +0.000 A 
ATOM      4  C   UNL     1     -11.117  14.644 -24.289  0.00  0.00    +0.000 A 
ATOM      5  C   UNL     1     -10.748  13.667 -25.211  0.00  0.00    +0.000 A 
ATOM      6  C   UNL     1     -10.153  14.052 -26.405  0.00  0.00    +0.000 A 
ENDROOT
BRANCH   1   8
ATOM      7  C   UNL     1      -7.900  15.731 -27.927  0.00  0.00    +0.000 C 
ATOM      8  O   UNL     1      -9.318  15.623 -27.923  0.00  0.00    +0.000 OA
ENDBRANCH   1   8
BRANCH   6   9
ATOM      9  O   UNL     1      -9.799  13.074 -27.296  0.00  0.00    +0.000 OA
ATOM     10  H   UNL     1     -10.140  13.386 -28.156  0.00  0.00    +0.000 HD
ENDBRANCH   6   9
TORSDOF 2
ENDMDL
MODEL 9
REMARK VINA RESULT:    -3.127     20.211     21.466
REMARK INTER + INTRA:          -3.443
REMARK INTER:                  -3.392
REMARK INTRA:                  -0.051
REMARK UNBOUND:                -0.042
REMARK  Name = 
REMARK  3 active torsions:
REMARK  status: ('A' for Active; 'I' for Inactive)
REMARK    1  A    between atoms: C_1  and  O_2
REMARK    2  A    between atoms: O_2  and  C_3
REMARK    3  A    between atoms: C_8  and  O_9
REMARK                            x       y       z     vdW  Elec       q    Type
REMARK                         _______ _______ _______ _____ _____    ______ ____
ROOT
ATOM      1  C   UNL     1      -5.804  13.252 -26.796  0.00  0.00    +0.000 A 
ATOM      2  C   UNL     1      -6.653  13.705 -27.804  0.00  0.00    +0.000 A 
ATOM      3  C   UNL     1      -7.942  13.171 -27.927  0.00  0.00    +0.000 A 
ATOM      4  C   UNL     1      -8.386  12.184 -27.045  0.00  0.00    +0.000 A 
ATOM      5  C   UNL     1      -7.544  11.726 -26.034  0.00  0.00    +0.000 A 
ATOM      6  C   UNL     1      -6.267  12.261 -25.921  0.00  0.00    +0.000 A 
ENDROOT
BRANCH   1   8
ATOM      7  C   UNL     1      -3.538  13.294 -27.510  0.00  0.00    +0.000 C 
ATOM      8  O   UNL     1      -4.523  13.682 -26.560  0.00  0.00    +0.000 OA
ENDBRANCH   1   8
BRANCH   6   9
ATOM      9  O   UNL     1      -5.457  11.795 -24.920  0.00  0.00    +0.000 OA
ATOM     10  H   UNL     1      -4.704  12.416 -24.900  0.00  0.00    +0.000 HD
ENDBRANCH   6   9
TORSDOF 2
ENDMDL
