MODEL 1
REMARK VINA RESULT:    -4.152      0.000      0.000
REMARK INTER + INTRA:          -6.297
REMARK INTER:                  -5.609
REMARK INTRA:                  -0.689
REMARK UNBOUND:                -0.689
REMARK  Name = 
REMARK  10 active torsions:
REMARK  status: ('A' for Active; 'I' for Inactive)
REMARK    1  A    between atoms: C_1  and  C_2
REMARK    2  A    between atoms: C_5  and  N_8
REMARK    3  A    between atoms: N_8  and  C_9
REMARK    4  A    between atoms: N_8  and  C_13
REMARK    5  A    between atoms: C_9  and  C_10
REMARK    6  A    between atoms: C_10  and  C_11
REMARK    7  A    between atoms: C_10  and  O_12
REMARK    8  A    between atoms: C_13  and  C_14
REMARK    9  A    between atoms: C_14  and  C_15
REMARK   10  A    between atoms: C_14  and  O_16
REMARK                            x       y       z     vdW  Elec       q    Type
REMARK                         _______ _______ _______ _____ _____    ______ ____
ROOT
ATOM      1  N   UNL     1     -15.972  16.247  -9.877  0.00  0.00    +0.000 N 
ENDROOT
BRANCH   1   6
ATOM      2  C   UNL     1     -15.747  11.750  -6.264  0.00  0.00    +0.000 C 
ATOM      3  C   UNL     1     -15.825  12.925  -7.189  0.00  0.00    +0.000 A 
ATOM      4  C   UNL     1     -16.536  12.849  -8.382  0.00  0.00    +0.000 A 
ATOM      5  C   UNL     1     -16.581  13.944  -9.261  0.00  0.00    +0.000 A 
ATOM      6  C   UNL     1     -15.906  15.152  -9.006  0.00  0.00    +0.000 A 
ATOM      7  C   UNL     1     -15.200  15.194  -7.790  0.00  0.00    +0.000 A 
ATOM      8  C   UNL     1     -15.149  14.107  -6.902  0.00  0.00    +0.000 A 
ENDBRANCH   1   6
BRANCH   1   9
ATOM      9  C   UNL     1     -15.456  17.569  -9.449  0.00  0.00    +0.000 C 
BRANCH   9  10
ATOM     10  C   UNL     1     -14.024  17.851  -9.965  0.00  0.00    +0.000 C 
ATOM     11  C   UNL     1     -13.073  18.133  -8.807  0.00  0.00    +0.000 C 
BRANCH  10  12
ATOM     12  O   UNL     1     -13.511  16.729 -10.697  0.00  0.00    +0.000 OA
ATOM     13  H   UNL     1     -14.130  16.532 -11.419  0.00  0.00    +0.000 HD
ENDBRANCH  10  12
ENDBRANCH   9  10
ENDBRANCH   1   9
BRANCH   1  14
ATOM     14  C   UNL     1     -16.962  16.291 -10.983  0.00  0.00    +0.000 C 
BRANCH  14  15
ATOM     15  C   UNL     1     -16.322  15.964 -12.354  0.00  0.00    +0.000 C 
ATOM     16  C   UNL     1     -15.935  17.207 -13.147  0.00  0.00    +0.000 C 
BRANCH  15  17
ATOM     17  O   UNL     1     -15.159  15.150 -12.212  0.00  0.00    +0.000 OA
ATOM     18  H   UNL     1     -14.532  15.694 -11.694  0.00  0.00    +0.000 HD
ENDBRANCH  15  17
ENDBRANCH  14  15
ENDBRANCH   1  14
TORSDOF 7
ENDMDL
MODEL 2
REMARK VINA RESULT:    -3.993     20.542     22.567
REMARK INTER + INTRA:          -6.083
REMARK INTER:                  -5.658
REMARK INTRA:                  -0.425
REMARK UNBOUND:                -0.689
REMARK  Name = 
REMARK  10 active torsions:
REMARK  status: ('A' for Active; 'I' for Inactive)
REMARK    1  A    between atoms: C_1  and  C_2
REMARK    2  A    between atoms: C_5  and  N_8
REMARK    3  A    between atoms: N_8  and  C_9
REMARK    4  A    between atoms: N_8  and  C_13
REMARK    5  A    between atoms: C_9  and  C_10
REMARK    6  A    between atoms: C_10  and  C_11
REMARK    7  A    between atoms: C_10  and  O_12
REMARK    8  A    between atoms: C_13  and  C_14
REMARK    9  A    between atoms: C_14  and  C_15
REMARK   10  A    between atoms: C_14  and  O_16
REMARK                            x       y       z     vdW  Elec       q    Type
REMARK                         _______ _______ _______ _____ _____    ______ ____
ROOT
ATOM      1  N   UNL     1      -2.310  13.703 -27.145  0.00  0.00    +0.000 N 
ENDROOT
BRANCH   1   6
ATOM      2  C   UNL     1       2.187  10.101 -27.508  0.00  0.00    +0.000 C 
ATOM      3  C   UNL     1       1.023  11.042 -27.438  0.00  0.00    +0.000 A 
ATOM      4  C   UNL     1       1.193  12.358 -27.021  0.00  0.00    +0.000 A 
ATOM      5  C   UNL     1       0.094  13.227 -26.928  0.00  0.00    +0.000 A 
ATOM      6  C   UNL     1      -1.221  12.825 -27.221  0.00  0.00    +0.000 A 
ATOM      7  C   UNL     1      -1.356  11.489 -27.641  0.00  0.00    +0.000 A 
ATOM      8  C   UNL     1      -0.265  10.610 -27.740  0.00  0.00    +0.000 A 
ENDBRANCH   1   6
BRANCH   1   9
ATOM      9  C   UNL     1      -2.269  14.860 -26.218  0.00  0.00    +0.000 C 
BRANCH   9  10
ATOM     10  C   UNL     1      -2.419  16.218 -26.947  0.00  0.00    +0.000 C 
ATOM     11  C   UNL     1      -3.198  17.211 -26.094  0.00  0.00    +0.000 C 
BRANCH  10  12
ATOM     12  O   UNL     1      -1.136  16.791 -27.237  0.00  0.00    +0.000 OA
ATOM     13  H   UNL     1      -1.272  17.551 -27.827  0.00  0.00    +0.000 HD
ENDBRANCH  10  12
ENDBRANCH   9  10
ENDBRANCH   1   9
BRANCH   1  14
ATOM     14  C   UNL     1      -3.674  13.273 -27.546  0.00  0.00    +0.000 C 
BRANCH  14  15
ATOM     15  C   UNL     1      -4.659  13.265 -26.352  0.00  0.00    +0.000 C 
ATOM     16  C   UNL     1      -6.077  12.871 -26.747  0.00  0.00    +0.000 C 
BRANCH  15  17
ATOM     17  O   UNL     1      -4.227  12.383 -25.318  0.00  0.00    +0.000 OA
ATOM     18  H   UNL     1      -3.527  12.874 -24.843  0.00  0.00    +0.000 HD
ENDBRANCH  15  17
ENDBRANCH  14  15
ENDBRANCH   1  14
TORSDOF 7
ENDMDL
MODEL 3
REMARK VINA RESULT:    -3.839     20.411     22.578
REMARK INTER + INTRA:          -5.874
REMARK INTER:                  -5.289
REMARK INTRA:                  -0.586
REMARK UNBOUND:                -0.689
REMARK  Name = 
REMARK  10 active torsions:
REMARK  status: ('A' for Active; 'I' for Inactive)
REMARK    1  A    between atoms: C_1  and  C_2
REMARK    2  A    between atoms: C_5  and  N_8
REMARK    3  A    between atoms: N_8  and  C_9
REMARK    4  A    between atoms: N_8  and  C_13
REMARK    5  A    between atoms: C_9  and  C_10
REMARK    6  A    between atoms: C_10  and  C_11
REMARK    7  A    between atoms: C_10  and  O_12
REMARK    8  A    between atoms: C_13  and  C_14
REMARK    9  A    between atoms: C_14  and  C_15
REMARK   10  A    between atoms: C_14  and  O_16
REMARK                            x       y       z     vdW  Elec       q    Type
REMARK                         _______ _______ _______ _____ _____    ______ ____
ROOT
ATOM      1  N   UNL     1      -2.464  13.746 -27.416  0.00  0.00    +0.000 N 
ENDROOT
BRANCH   1   6
ATOM      2  C   UNL     1       2.077  10.182 -27.434  0.00  0.00    +0.000 C 
ATOM      3  C   UNL     1       0.903  11.112 -27.453  0.00  0.00    +0.000 A 
ATOM      4  C   UNL     1       1.043  12.446 -27.086  0.00  0.00    +0.000 A 
ATOM      5  C   UNL     1      -0.067  13.307 -27.077  0.00  0.00    +0.000 A 
ATOM      6  C   UNL     1      -1.365  12.878 -27.408  0.00  0.00    +0.000 A 
ATOM      7  C   UNL     1      -1.469  11.524 -27.776  0.00  0.00    +0.000 A 
ATOM      8  C   UNL     1      -0.366  10.653 -27.791  0.00  0.00    +0.000 A 
ENDBRANCH   1   6
BRANCH   1   9
ATOM      9  C   UNL     1      -3.826  13.218 -27.669  0.00  0.00    +0.000 C 
BRANCH   9  10
ATOM     10  C   UNL     1      -4.724  13.244 -26.408  0.00  0.00    +0.000 C 
ATOM     11  C   UNL     1      -6.060  12.562 -26.675  0.00  0.00    +0.000 C 
BRANCH  10  12
ATOM     12  O   UNL     1      -4.092  12.569 -25.312  0.00  0.00    +0.000 OA
ATOM     13  H   UNL     1      -4.234  11.614 -25.425  0.00  0.00    +0.000 HD
ENDBRANCH  10  12
ENDBRANCH   9  10
ENDBRANCH   1   9
BRANCH   1  14
ATOM     14  C   UNL     1      -2.296  15.197 -27.688  0.00  0.00    +0.000 C 
BRANCH  14  15
ATOM     15  C   UNL     1      -2.447  16.052 -26.407  0.00  0.00    +0.000 C 
ATOM     16  C   UNL     1      -3.705  16.914 -26.406  0.00  0.00    +0.000 C 
BRANCH  15  17
ATOM     17  O   UNL     1      -2.466  15.243 -25.232  0.00  0.00    +0.000 OA
ATOM     18  H   UNL     1      -1.594  15.389 -24.811  0.00  0.00    +0.000 HD
ENDBRANCH  15  17
ENDBRANCH  14  15
ENDBRANCH   1  14
TORSDOF 7
ENDMDL
MODEL 4
REMARK VINA RESULT:    -3.560     21.495     23.509
REMARK INTER + INTRA:          -5.497
REMARK INTER:                  -5.136
REMARK INTRA:                  -0.360
REMARK UNBOUND:                -0.689
REMARK  Name = 
REMARK  10 active torsions:
REMARK  status: ('A' for Active; 'I' for Inactive)
REMARK    1  A    between atoms: C_1  and  C_2
REMARK    2  A    between atoms: C_5  and  N_8
REMARK    3  A    between atoms: N_8  and  C_9
REMARK    4  A    between atoms: N_8  and  C_13
REMARK    5  A    between atoms: C_9  and  C_10
REMARK    6  A    between atoms: C_10  and  C_11
REMARK    7  A    between atoms: C_10  and  O_12
REMARK    8  A    between atoms: C_13  and  C_14
REMARK    9  A    between atoms: C_14  and  C_15
REMARK   10  A    between atoms: C_14  and  O_16
REMARK                            x       y       z     vdW  Elec       q    Type
REMARK                         _______ _______ _______ _____ _____    ______ ____
ROOT
ATOM      1  N   UNL     1       0.584  13.480 -26.885  0.00  0.00    +0.000 N 
ENDROOT
BRANCH   1   6
ATOM      2  C   UNL     1      -5.119  14.147 -27.485  0.00  0.00    +0.000 C 
ATOM      3  C   UNL     1      -3.643  13.961 -27.308  0.00  0.00    +0.000 A 
ATOM      4  C   UNL     1      -2.880  14.906 -26.630  0.00  0.00    +0.000 A 
ATOM      5  C   UNL     1      -1.492  14.742 -26.493  0.00  0.00    +0.000 A 
ATOM      6  C   UNL     1      -0.797  13.648 -27.041  0.00  0.00    +0.000 A 
ATOM      7  C   UNL     1      -1.600  12.712 -27.718  0.00  0.00    +0.000 A 
ATOM      8  C   UNL     1      -2.990  12.863 -27.860  0.00  0.00    +0.000 A 
ENDBRANCH   1   6
BRANCH   1   9
ATOM      9  C   UNL     1       1.388  14.525 -26.205  0.00  0.00    +0.000 C 
BRANCH   9  10
ATOM     10  C   UNL     1       2.580  13.941 -25.407  0.00  0.00    +0.000 C 
ATOM     11  C   UNL     1       3.629  15.012 -25.133  0.00  0.00    +0.000 C 
BRANCH  10  12
ATOM     12  O   UNL     1       2.146  13.412 -24.147  0.00  0.00    +0.000 OA
ATOM     13  H   UNL     1       1.565  14.069 -23.728  0.00  0.00    +0.000 HD
ENDBRANCH  10  12
ENDBRANCH   9  10
ENDBRANCH   1   9
BRANCH   1  14
ATOM     14  C   UNL     1       1.357  12.584 -27.783  0.00  0.00    +0.000 C 
BRANCH  14  15
ATOM     15  C   UNL     1       1.301  11.107 -27.325  0.00  0.00    +0.000 C 
ATOM     16  C   UNL     1       2.408  10.250 -27.927  0.00  0.00    +0.000 C 
BRANCH  15  17
ATOM     17  O   UNL     1       1.376  10.993 -25.904  0.00  0.00    +0.000 OA
ATOM     18  H   UNL     1       1.350  11.914 -25.575  0.00  0.00    +0.000 HD
ENDBRANCH  15  17
ENDBRANCH  14  15
ENDBRANCH   1  14
TORSDOF 7
ENDMDL
MODEL 5
REMARK VINA RESULT:    -3.465      1.973      3.502
REMARK INTER + INTRA:          -5.369
REMARK INTER:                  -4.833
REMARK INTRA:                  -0.536
REMARK UNBOUND:                -0.689
REMARK  Name = 
REMARK  10 active torsions:
REMARK  status: ('A' for Active; 'I' for Inactive)
REMARK    1  A    between atoms: C_1  and  C_2
REMARK    2  A    between atoms: C_5  and  N_8
REMARK    3  A    between atoms: N_8  and  C_9
REMARK    4  A    between atoms: N_8  and  C_13
REMARK    5  A    between atoms: C_9  and  C_10
REMARK    6  A    between atoms: C_10  and  C_11
REMARK    7  A    between atoms: C_10  and  O_12
REMARK    8  A    between atoms: C_13  and  C_14
REMARK    9  A    between atoms: C_14  and  C_15
REMARK   10  A    between atoms: C_14  and  O_16
REMARK                            x       y       z     vdW  Elec       q    Type
REMARK                         _______ _______ _______ _____ _____    ______ ____
ROOT
ATOM      1  N   UNL     1     -15.757  16.954 -12.608  0.00  0.00    +0.000 N 
ENDROOT
BRANCH   1   6
ATOM      2  C   UNL     1     -15.122  15.404  -7.084  0.00  0.00    +0.000 C 
ATOM      3  C   UNL     1     -15.270  15.788  -8.524  0.00  0.00    +0.000 A 
ATOM      4  C   UNL     1     -14.476  16.784  -9.083  0.00  0.00    +0.000 A 
ATOM      5  C   UNL     1     -14.641  17.162 -10.426  0.00  0.00    +0.000 A 
ATOM      6  C   UNL     1     -15.612  16.587 -11.265  0.00  0.00    +0.000 A 
ATOM      7  C   UNL     1     -16.395  15.582 -10.667  0.00  0.00    +0.000 A 
ATOM      8  C   UNL     1     -16.240  15.194  -9.326  0.00  0.00    +0.000 A 
ENDBRANCH   1   6
BRANCH   1   9
ATOM      9  C   UNL     1     -14.987  18.098 -13.154  0.00  0.00    +0.000 C 
BRANCH   9  10
ATOM     10  C   UNL     1     -13.752  17.653 -13.975  0.00  0.00    +0.000 C 
ATOM     11  C   UNL     1     -13.565  18.540 -15.201  0.00  0.00    +0.000 C 
BRANCH  10  12
ATOM     12  O   UNL     1     -12.556  17.726 -13.187  0.00  0.00    +0.000 OA
ATOM     13  H   UNL     1     -11.840  18.053 -13.756  0.00  0.00    +0.000 HD
ENDBRANCH  10  12
ENDBRANCH   9  10
ENDBRANCH   1   9
BRANCH   1  14
ATOM     14  C   UNL     1     -16.982  16.605 -13.373  0.00  0.00    +0.000 C 
BRANCH  14  15
ATOM     15  C   UNL     1     -16.743  15.434 -14.356  0.00  0.00    +0.000 C 
ATOM     16  C   UNL     1     -16.439  15.895 -15.776  0.00  0.00    +0.000 C 
BRANCH  15  17
ATOM     17  O   UNL     1     -15.673  14.595 -13.925  0.00  0.00    +0.000 OA
ATOM     18  H   UNL     1     -15.274  15.064 -13.165  0.00  0.00    +0.000 HD
ENDBRANCH  15  17
ENDBRANCH  14  15
ENDBRANCH   1  14
TORSDOF 7
ENDMDL
MODEL 6
REMARK VINA RESULT:    -3.452      1.563      5.503
REMARK INTER + INTRA:          -5.352
REMARK INTER:                  -4.972
REMARK INTRA:                  -0.379
REMARK UNBOUND:                -0.689
REMARK  Name = 
REMARK  10 active torsions:
REMARK  status: ('A' for Active; 'I' for Inactive)
REMARK    1  A    between atoms: C_1  and  C_2
REMARK    2  A    between atoms: C_5  and  N_8
REMARK    3  A    between atoms: N_8  and  C_9
REMARK    4  A    between atoms: N_8  and  C_13
REMARK    5  A    between atoms: C_9  and  C_10
REMARK    6  A    between atoms: C_10  and  C_11
REMARK    7  A    between atoms: C_10  and  O_12
REMARK    8  A    between atoms: C_13  and  C_14
REMARK    9  A    between atoms: C_14  and  C_15
REMARK   10  A    between atoms: C_14  and  O_16
REMARK                            x       y       z     vdW  Elec       q    Type
REMARK                         _______ _______ _______ _____ _____    ______ ____
ROOT
ATOM      1  N   UNL     1     -15.871  16.550 -10.540  0.00  0.00    +0.000 N 
ENDROOT
BRANCH   1   6
ATOM      2  C   UNL     1     -15.858  16.333 -16.309  0.00  0.00    +0.000 C 
ATOM      3  C   UNL     1     -15.837  16.390 -14.812  0.00  0.00    +0.000 A 
ATOM      4  C   UNL     1     -15.841  15.224 -14.052  0.00  0.00    +0.000 A 
ATOM      5  C   UNL     1     -15.851  15.284 -12.649  0.00  0.00    +0.000 A 
ATOM      6  C   UNL     1     -15.881  16.498 -11.939  0.00  0.00    +0.000 A 
ATOM      7  C   UNL     1     -15.874  17.655 -12.739  0.00  0.00    +0.000 A 
ATOM      8  C   UNL     1     -15.862  17.610 -14.143  0.00  0.00    +0.000 A 
ENDBRANCH   1   6
BRANCH   1   9
ATOM      9  C   UNL     1     -16.785  15.683  -9.757  0.00  0.00    +0.000 C 
BRANCH   9  10
ATOM     10  C   UNL     1     -16.045  14.531  -9.034  0.00  0.00    +0.000 C 
ATOM     11  C   UNL     1     -16.614  14.310  -7.637  0.00  0.00    +0.000 C 
BRANCH  10  12
ATOM     12  O   UNL     1     -16.168  13.302  -9.763  0.00  0.00    +0.000 OA
ATOM     13  H   UNL     1     -15.345  13.163 -10.260  0.00  0.00    +0.000 HD
ENDBRANCH  10  12
ENDBRANCH   9  10
ENDBRANCH   1   9
BRANCH   1  14
ATOM     14  C   UNL     1     -15.382  17.753  -9.819  0.00  0.00    +0.000 C 
BRANCH  14  15
ATOM     15  C   UNL     1     -13.867  17.673  -9.509  0.00  0.00    +0.000 C 
ATOM     16  C   UNL     1     -13.563  17.017  -8.168  0.00  0.00    +0.000 C 
BRANCH  15  17
ATOM     17  O   UNL     1     -13.160  16.957 -10.521  0.00  0.00    +0.000 OA
ATOM     18  H   UNL     1     -13.327  16.013 -10.327  0.00  0.00    +0.000 HD
ENDBRANCH  15  17
ENDBRANCH  14  15
ENDBRANCH   1  14
TORSDOF 7
ENDMDL
MODEL 7
REMARK VINA RESULT:    -3.431      1.777      5.615
REMARK INTER + INTRA:          -5.323
REMARK INTER:                  -4.766
REMARK INTRA:                  -0.557
REMARK UNBOUND:                -0.689
REMARK  Name = 
REMARK  10 active torsions:
REMARK  status: ('A' for Active; 'I' for Inactive)
REMARK    1  A    between atoms: C_1  and  C_2
REMARK    2  A    between atoms: C_5  and  N_8
REMARK    3  A    between atoms: N_8  and  C_9
REMARK    4  A    between atoms: N_8  and  C_13
REMARK    5  A    between atoms: C_9  and  C_10
REMARK    6  A    between atoms: C_10  and  C_11
REMARK    7  A    between atoms: C_10  and  O_12
REMARK    8  A    between atoms: C_13  and  C_14
REMARK    9  A    between atoms: C_14  and  C_15
REMARK   10  A    between atoms: C_14  and  O_16
REMARK                            x       y       z     vdW  Elec       q    Type
REMARK                         _______ _______ _______ _____ _____    ______ ____
ROOT
ATOM      1  N   UNL     1     -15.974  15.895  -9.475  0.00  0.00    +0.000 N 
ENDROOT
BRANCH   1   6
ATOM      2  C   UNL     1     -14.458  17.433 -14.829  0.00  0.00    +0.000 C 
ATOM      3  C   UNL     1     -14.873  17.047 -13.442  0.00  0.00    +0.000 A 
ATOM      4  C   UNL     1     -14.489  17.809 -12.343  0.00  0.00    +0.000 A 
ATOM      5  C   UNL     1     -14.855  17.426 -11.043  0.00  0.00    +0.000 A 
ATOM      6  C   UNL     1     -15.596  16.261 -10.773  0.00  0.00    +0.000 A 
ATOM      7  C   UNL     1     -15.968  15.516 -11.907  0.00  0.00    +0.000 A 
ATOM      8  C   UNL     1     -15.611  15.889 -13.213  0.00  0.00    +0.000 A 
ENDBRANCH   1   6
BRANCH   1   9
ATOM      9  C   UNL     1     -16.892  14.750  -9.263  0.00  0.00    +0.000 C 
BRANCH   9  10
ATOM     10  C   UNL     1     -16.163  13.485  -8.746  0.00  0.00    +0.000 C 
ATOM     11  C   UNL     1     -17.038  12.716  -7.763  0.00  0.00    +0.000 C 
BRANCH  10  12
ATOM     12  O   UNL     1     -15.832  12.604  -9.829  0.00  0.00    +0.000 OA
ATOM     13  H   UNL     1     -16.653  12.194 -10.146  0.00  0.00    +0.000 HD
ENDBRANCH  10  12
ENDBRANCH   9  10
ENDBRANCH   1   9
BRANCH   1  14
ATOM     14  C   UNL     1     -15.924  16.871  -8.356  0.00  0.00    +0.000 C 
BRANCH  14  15
ATOM     15  C   UNL     1     -14.737  16.603  -7.400  0.00  0.00    +0.000 C 
ATOM     16  C   UNL     1     -15.139  15.837  -6.145  0.00  0.00    +0.000 C 
BRANCH  15  17
ATOM     17  O   UNL     1     -13.693  15.876  -8.046  0.00  0.00    +0.000 OA
ATOM     18  H   UNL     1     -13.100  16.561  -8.416  0.00  0.00    +0.000 HD
ENDBRANCH  15  17
ENDBRANCH  14  15
ENDBRANCH   1  14
TORSDOF 7
ENDMDL
MODEL 8
REMARK VINA RESULT:    -3.405      2.512      5.514
REMARK INTER + INTRA:          -5.287
REMARK INTER:                  -4.660
REMARK INTRA:                  -0.627
REMARK UNBOUND:                -0.689
REMARK  Name = 
REMARK  10 active torsions:
REMARK  status: ('A' for Active; 'I' for Inactive)
REMARK    1  A    between atoms: C_1  and  C_2
REMARK    2  A    between atoms: C_5  and  N_8
REMARK    3  A    between atoms: N_8  and  C_9
REMARK    4  A    between atoms: N_8  and  C_13
REMARK    5  A    between atoms: C_9  and  C_10
REMARK    6  A    between atoms: C_10  and  C_11
REMARK    7  A    between atoms: C_10  and  O_12
REMARK    8  A    between atoms: C_13  and  C_14
REMARK    9  A    between atoms: C_14  and  C_15
REMARK   10  A    between atoms: C_14  and  O_16
REMARK                            x       y       z     vdW  Elec       q    Type
REMARK                         _______ _______ _______ _____ _____    ______ ____
ROOT
ATOM      1  N   UNL     1     -15.191  15.633  -7.348  0.00  0.00    +0.000 N 
ENDROOT
BRANCH   1   6
ATOM      2  C   UNL     1     -15.505  17.011 -12.946  0.00  0.00    +0.000 C 
ATOM      3  C   UNL     1     -15.406  16.636 -11.499  0.00  0.00    +0.000 A 
ATOM      4  C   UNL     1     -16.245  15.671 -10.952  0.00  0.00    +0.000 A 
ATOM      5  C   UNL     1     -16.168  15.345  -9.588  0.00  0.00    +0.000 A 
ATOM      6  C   UNL     1     -15.275  15.977  -8.703  0.00  0.00    +0.000 A 
ATOM      7  C   UNL     1     -14.442  16.946  -9.291  0.00  0.00    +0.000 A 
ATOM      8  C   UNL     1     -14.506  17.280 -10.654  0.00  0.00    +0.000 A 
ENDBRANCH   1   6
BRANCH   1   9
ATOM      9  C   UNL     1     -16.296  14.885  -6.701  0.00  0.00    +0.000 C 
BRANCH   9  10
ATOM     10  C   UNL     1     -15.869  13.473  -6.229  0.00  0.00    +0.000 C 
ATOM     11  C   UNL     1     -17.039  12.499  -6.297  0.00  0.00    +0.000 C 
BRANCH  10  12
ATOM     12  O   UNL     1     -14.811  12.955  -7.048  0.00  0.00    +0.000 OA
ATOM     13  H   UNL     1     -14.865  11.985  -7.032  0.00  0.00    +0.000 HD
ENDBRANCH  10  12
ENDBRANCH   9  10
ENDBRANCH   1   9
BRANCH   1  14
ATOM     14  C   UNL     1     -14.321  16.393  -6.415  0.00  0.00    +0.000 C 
BRANCH  14  15
ATOM     15  C   UNL     1     -12.843  15.943  -6.496  0.00  0.00    +0.000 C 
ATOM     16  C   UNL     1     -11.877  16.939  -5.867  0.00  0.00    +0.000 C 
BRANCH  15  17
ATOM     17  O   UNL     1     -12.642  14.677  -5.870  0.00  0.00    +0.000 OA
ATOM     18  H   UNL     1     -13.538  14.293  -5.783  0.00  0.00    +0.000 HD
ENDBRANCH  15  17
ENDBRANCH  14  15
ENDBRANCH   1  14
TORSDOF 7
ENDMDL
