MODEL 1
REMARK VINA RESULT:    -4.312      0.000      0.000
REMARK INTER + INTRA:          -4.731
REMARK INTER:                  -4.690
REMARK INTRA:                  -0.041
REMARK UNBOUND:                -0.041
REMARK  Name = 
REMARK  3 active torsions:
REMARK  status: ('A' for Active; 'I' for Inactive)
REMARK    1  A    between atoms: C_1  and  O_2
REMARK    2  A    between atoms: O_2  and  C_3
REMARK    3  A    between atoms: C_8  and  O_9
REMARK                            x       y       z     vdW  Elec       q    Type
REMARK                         _______ _______ _______ _____ _____    ______ ____
ROOT
ATOM      1  C   UNL     1     -16.243  12.745  -8.261  0.00  0.00    +0.000 A 
ATOM      2  C   UNL     1     -17.002  13.118  -7.153  0.00  0.00    +0.000 A 
ATOM      3  C   UNL     1     -16.814  12.470  -5.926  0.00  0.00    +0.000 A 
ATOM      4  C   UNL     1     -15.871  11.448  -5.802  0.00  0.00    +0.000 A 
ATOM      5  C   UNL     1     -15.108  11.070  -6.905  0.00  0.00    +0.000 A 
ATOM      6  C   UNL     1     -15.302  11.718  -8.118  0.00  0.00    +0.000 A 
ENDROOT
BRANCH   1   8
ATOM      7  C   UNL     1     -16.681  14.663  -9.594  0.00  0.00    +0.000 C 
ATOM      8  O   UNL     1     -16.321  13.289  -9.518  0.00  0.00    +0.000 OA
ENDBRANCH   1   8
BRANCH   6   9
ATOM      9  O   UNL     1     -14.541  11.328  -9.188  0.00  0.00    +0.000 OA
ATOM     10  H   UNL     1     -15.111  10.713  -9.687  0.00  0.00    +0.000 HD
ENDBRANCH   6   9
TORSDOF 2
ENDMDL
MODEL 2
REMARK VINA RESULT:    -3.873      1.292      3.070
REMARK INTER + INTRA:          -4.254
REMARK INTER:                  -4.204
REMARK INTRA:                  -0.050
REMARK UNBOUND:                -0.041
REMARK  Name = 
REMARK  3 active torsions:
REMARK  status: ('A' for Active; 'I' for Inactive)
REMARK    1  A    between atoms: C_1  and  O_2
REMARK    2  A    between atoms: O_2  and  C_3
REMARK    3  A    between atoms: C_8  and  O_9
REMARK                            x       y       z     vdW  Elec       q    Type
REMARK                         _______ _______ _______ _____ _____    ______ ____
ROOT
ATOM      1  C   UNL     1     -15.260  11.488  -7.017  0.00  0.00    +0.000 A 
ATOM      2  C   UNL     1     -16.152  12.181  -6.200  0.00  0.00    +0.000 A 
ATOM      3  C   UNL     1     -17.039  13.108  -6.760  0.00  0.00    +0.000 A 
ATOM      4  C   UNL     1     -17.038  13.347  -8.135  0.00  0.00    +0.000 A 
ATOM      5  C   UNL     1     -16.151  12.658  -8.959  0.00  0.00    +0.000 A 
ATOM      6  C   UNL     1     -15.274  11.741  -8.395  0.00  0.00    +0.000 A 
ENDROOT
BRANCH   1   8
ATOM      7  C   UNL     1     -13.217  11.049  -5.886  0.00  0.00    +0.000 C 
ATOM      8  O   UNL     1     -14.340  10.557  -6.608  0.00  0.00    +0.000 OA
ENDBRANCH   1   8
BRANCH   6   9
ATOM      9  O   UNL     1     -14.411  11.076  -9.225  0.00  0.00    +0.000 OA
ATOM     10  H   UNL     1     -14.534  10.133  -9.008  0.00  0.00    +0.000 HD
ENDBRANCH   6   9
TORSDOF 2
ENDMDL
MODEL 3
REMARK VINA RESULT:    -3.869     17.306     18.708
REMARK INTER + INTRA:          -4.250
REMARK INTER:                  -4.199
REMARK INTRA:                  -0.051
REMARK UNBOUND:                -0.041
REMARK  Name = 
REMARK  3 active torsions:
REMARK  status: ('A' for Active; 'I' for Inactive)
REMARK    1  A    between atoms: C_1  and  O_2
REMARK    2  A    between atoms: O_2  and  C_3
REMARK    3  A    between atoms: C_8  and  O_9
REMARK                            x       y       z     vdW  Elec       q    Type
REMARK                         _______ _______ _______ _____ _____    ______ ____
ROOT
ATOM      1  C   UNL     1     -10.566  16.002 -24.919  0.00  0.00    +0.000 A 
ATOM      2  C   UNL     1     -10.001  16.457 -26.110  0.00  0.00    +0.000 A 
ATOM      3  C   UNL     1      -9.791  15.567 -27.170  0.00  0.00    +0.000 A 
ATOM      4  C   UNL     1     -10.143  14.221 -27.045  0.00  0.00    +0.000 A 
ATOM      5  C   UNL     1     -10.709  13.759 -25.859  0.00  0.00    +0.000 A 
ATOM      6  C   UNL     1     -10.913  14.649 -24.813  0.00  0.00    +0.000 A 
ENDROOT
BRANCH   1   8
ATOM      7  C   UNL     1      -9.726  17.459 -23.241  0.00  0.00    +0.000 C 
ATOM      8  O   UNL     1     -10.828  16.757 -23.804  0.00  0.00    +0.000 OA
ENDBRANCH   1   8
BRANCH   6   9
ATOM      9  O   UNL     1     -11.471  14.171 -23.657  0.00  0.00    +0.000 OA
ATOM     10  H   UNL     1     -12.235  14.756 -23.489  0.00  0.00    +0.000 HD
ENDBRANCH   6   9
TORSDOF 2
ENDMDL
MODEL 4
REMARK VINA RESULT:    -3.818     17.756     19.437
REMARK INTER + INTRA:          -4.195
REMARK INTER:                  -4.142
REMARK INTRA:                  -0.053
REMARK UNBOUND:                -0.041
REMARK  Name = 
REMARK  3 active torsions:
REMARK  status: ('A' for Active; 'I' for Inactive)
REMARK    1  A    between atoms: C_1  and  O_2
REMARK    2  A    between atoms: O_2  and  C_3
REMARK    3  A    between atoms: C_8  and  O_9
REMARK                            x       y       z     vdW  Elec       q    Type
REMARK                         _______ _______ _______ _____ _____    ______ ____
ROOT
ATOM      1  C   UNL     1     -10.265  14.446 -26.595  0.00  0.00    +0.000 A 
ATOM      2  C   UNL     1      -9.972  15.711 -27.102  0.00  0.00    +0.000 A 
ATOM      3  C   UNL     1     -10.064  16.835 -26.272  0.00  0.00    +0.000 A 
ATOM      4  C   UNL     1     -10.449  16.700 -24.937  0.00  0.00    +0.000 A 
ATOM      5  C   UNL     1     -10.742  15.439 -24.423  0.00  0.00    +0.000 A 
ATOM      6  C   UNL     1     -10.649  14.330 -25.253  0.00  0.00    +0.000 A 
ENDROOT
BRANCH   1   8
ATOM      7  C   UNL     1      -8.934  12.833 -27.724  0.00  0.00    +0.000 C 
ATOM      8  O   UNL     1     -10.218  13.263 -27.289  0.00  0.00    +0.000 OA
ENDBRANCH   1   8
BRANCH   6   9
ATOM      9  O   UNL     1     -10.943  13.101 -24.726  0.00  0.00    +0.000 OA
ATOM     10  H   UNL     1     -10.301  12.982 -24.000  0.00  0.00    +0.000 HD
ENDBRANCH   6   9
TORSDOF 2
ENDMDL
MODEL 5
REMARK VINA RESULT:    -3.561      1.200      1.668
REMARK INTER + INTRA:          -3.915
REMARK INTER:                  -3.870
REMARK INTRA:                  -0.045
REMARK UNBOUND:                -0.041
REMARK  Name = 
REMARK  3 active torsions:
REMARK  status: ('A' for Active; 'I' for Inactive)
REMARK    1  A    between atoms: C_1  and  O_2
REMARK    2  A    between atoms: O_2  and  C_3
REMARK    3  A    between atoms: C_8  and  O_9
REMARK                            x       y       z     vdW  Elec       q    Type
REMARK                         _______ _______ _______ _____ _____    ______ ____
ROOT
ATOM      1  C   UNL     1     -16.451  13.444  -7.620  0.00  0.00    +0.000 A 
ATOM      2  C   UNL     1     -16.380  13.037  -6.289  0.00  0.00    +0.000 A 
ATOM      3  C   UNL     1     -15.746  11.832  -5.959  0.00  0.00    +0.000 A 
ATOM      4  C   UNL     1     -15.183  11.032  -6.955  0.00  0.00    +0.000 A 
ATOM      5  C   UNL     1     -15.249  11.433  -8.287  0.00  0.00    +0.000 A 
ATOM      6  C   UNL     1     -15.880  12.629  -8.605  0.00  0.00    +0.000 A 
ENDROOT
BRANCH   1   8
ATOM      7  C   UNL     1     -16.824  15.772  -7.319  0.00  0.00    +0.000 C 
ATOM      8  O   UNL     1     -17.038  14.593  -8.087  0.00  0.00    +0.000 OA
ENDBRANCH   1   8
BRANCH   6   9
ATOM      9  O   UNL     1     -15.932  13.002  -9.922  0.00  0.00    +0.000 OA
ATOM     10  H   UNL     1     -16.366  13.877  -9.915  0.00  0.00    +0.000 HD
ENDBRANCH   6   9
TORSDOF 2
ENDMDL
MODEL 6
REMARK VINA RESULT:    -3.516     18.140     19.582
REMARK INTER + INTRA:          -3.865
REMARK INTER:                  -3.830
REMARK INTRA:                  -0.035
REMARK UNBOUND:                -0.041
REMARK  Name = 
REMARK  3 active torsions:
REMARK  status: ('A' for Active; 'I' for Inactive)
REMARK    1  A    between atoms: C_1  and  O_2
REMARK    2  A    between atoms: O_2  and  C_3
REMARK    3  A    between atoms: C_8  and  O_9
REMARK                            x       y       z     vdW  Elec       q    Type
REMARK                         _______ _______ _______ _____ _____    ______ ____
ROOT
ATOM      1  C   UNL     1     -10.254  14.182 -26.461  0.00  0.00    +0.000 A 
ATOM      2  C   UNL     1     -10.814  13.842 -25.230  0.00  0.00    +0.000 A 
ATOM      3  C   UNL     1     -11.057  14.836 -24.273  0.00  0.00    +0.000 A 
ATOM      4  C   UNL     1     -10.740  16.169 -24.541  0.00  0.00    +0.000 A 
ATOM      5  C   UNL     1     -10.181  16.517 -25.769  0.00  0.00    +0.000 A 
ATOM      6  C   UNL     1      -9.943  15.525 -26.712  0.00  0.00    +0.000 A 
ENDROOT
BRANCH   1   8
ATOM      7  C   UNL     1      -8.792  12.525 -27.333  0.00  0.00    +0.000 C 
ATOM      8  O   UNL     1      -9.963  13.318 -27.486  0.00  0.00    +0.000 OA
ENDBRANCH   1   8
BRANCH   6   9
ATOM      9  O   UNL     1      -9.392  15.891 -27.911  0.00  0.00    +0.000 OA
ATOM     10  H   UNL     1      -9.149  15.048 -28.340  0.00  0.00    +0.000 HD
ENDBRANCH   6   9
TORSDOF 2
ENDMDL
MODEL 7
REMARK VINA RESULT:    -3.412     17.452     18.736
REMARK INTER + INTRA:          -3.753
REMARK INTER:                  -3.700
REMARK INTRA:                  -0.053
REMARK UNBOUND:                -0.041
REMARK  Name = 
REMARK  3 active torsions:
REMARK  status: ('A' for Active; 'I' for Inactive)
REMARK    1  A    between atoms: C_1  and  O_2
REMARK    2  A    between atoms: O_2  and  C_3
REMARK    3  A    between atoms: C_8  and  O_9
REMARK                            x       y       z     vdW  Elec       q    Type
REMARK                         _______ _______ _______ _____ _____    ______ ____
ROOT
ATOM      1  C   UNL     1     -10.565  16.247 -24.709  0.00  0.00    +0.000 A 
ATOM      2  C   UNL     1     -11.068  15.067 -24.164  0.00  0.00    +0.000 A 
ATOM      3  C   UNL     1     -11.057  13.887 -24.919  0.00  0.00    +0.000 A 
ATOM      4  C   UNL     1     -10.547  13.883 -26.219  0.00  0.00    +0.000 A 
ATOM      5  C   UNL     1     -10.043  15.059 -26.770  0.00  0.00    +0.000 A 
ATOM      6  C   UNL     1     -10.057  16.224 -26.014  0.00  0.00    +0.000 A 
ENDROOT
BRANCH   1   8
ATOM      7  C   UNL     1      -9.635  17.579 -22.975  0.00  0.00    +0.000 C 
ATOM      8  O   UNL     1     -10.513  17.470 -24.089  0.00  0.00    +0.000 OA
ENDBRANCH   1   8
BRANCH   6   9
ATOM      9  O   UNL     1      -9.556  17.367 -26.578  0.00  0.00    +0.000 OA
ATOM     10  H   UNL     1     -10.227  18.051 -26.391  0.00  0.00    +0.000 HD
ENDBRANCH   6   9
TORSDOF 2
ENDMDL
MODEL 8
REMARK VINA RESULT:    -3.395     20.171     21.448
REMARK INTER + INTRA:          -3.735
REMARK INTER:                  -3.682
REMARK INTRA:                  -0.052
REMARK UNBOUND:                -0.041
REMARK  Name = 
REMARK  3 active torsions:
REMARK  status: ('A' for Active; 'I' for Inactive)
REMARK    1  A    between atoms: C_1  and  O_2
REMARK    2  A    between atoms: O_2  and  C_3
REMARK    3  A    between atoms: C_8  and  O_9
REMARK                            x       y       z     vdW  Elec       q    Type
REMARK                         _______ _______ _______ _____ _____    ______ ____
ROOT
ATOM      1  C   UNL     1      -5.794  13.231 -26.813  0.00  0.00    +0.000 A 
ATOM      2  C   UNL     1      -6.647  13.679 -27.821  0.00  0.00    +0.000 A 
ATOM      3  C   UNL     1      -7.941  13.155 -27.927  0.00  0.00    +0.000 A 
ATOM      4  C   UNL     1      -8.387  12.184 -27.029  0.00  0.00    +0.000 A 
ATOM      5  C   UNL     1      -7.541  11.731 -26.019  0.00  0.00    +0.000 A 
ATOM      6  C   UNL     1      -6.258  12.256 -25.922  0.00  0.00    +0.000 A 
ENDROOT
BRANCH   1   8
ATOM      7  C   UNL     1      -3.542  13.284 -27.570  0.00  0.00    +0.000 C 
ATOM      8  O   UNL     1      -4.507  13.653 -26.592  0.00  0.00    +0.000 OA
ENDBRANCH   1   8
BRANCH   6   9
ATOM      9  O   UNL     1      -5.445  11.795 -24.921  0.00  0.00    +0.000 OA
ATOM     10  H   UNL     1      -5.259  10.867 -25.160  0.00  0.00    +0.000 HD
ENDBRANCH   6   9
TORSDOF 2
ENDMDL
MODEL 9
REMARK VINA RESULT:    -3.389      6.665      7.969
REMARK INTER + INTRA:          -3.727
REMARK INTER:                  -3.679
REMARK INTRA:                  -0.048
REMARK UNBOUND:                -0.041
REMARK  Name = 
REMARK  3 active torsions:
REMARK  status: ('A' for Active; 'I' for Inactive)
REMARK    1  A    between atoms: C_1  and  O_2
REMARK    2  A    between atoms: O_2  and  C_3
REMARK    3  A    between atoms: C_8  and  O_9
REMARK                            x       y       z     vdW  Elec       q    Type
REMARK                         _______ _______ _______ _____ _____    ______ ____
ROOT
ATOM      1  C   UNL     1     -15.269  16.984 -13.502  0.00  0.00    +0.000 A 
ATOM      2  C   UNL     1     -15.484  17.787 -14.622  0.00  0.00    +0.000 A 
ATOM      3  C   UNL     1     -15.983  17.222 -15.802  0.00  0.00    +0.000 A 
ATOM      4  C   UNL     1     -16.268  15.857 -15.868  0.00  0.00    +0.000 A 
ATOM      5  C   UNL     1     -16.056  15.049 -14.753  0.00  0.00    +0.000 A 
ATOM      6  C   UNL     1     -15.561  15.617 -13.587  0.00  0.00    +0.000 A 
ENDROOT
BRANCH   1   8
ATOM      7  C   UNL     1     -13.611  18.201 -12.311  0.00  0.00    +0.000 C 
ATOM      8  O   UNL     1     -14.786  17.400 -12.287  0.00  0.00    +0.000 OA
ENDBRANCH   1   8
BRANCH   6   9
ATOM      9  O   UNL     1     -15.361  14.803 -12.504  0.00  0.00    +0.000 OA
ATOM     10  H   UNL     1     -15.386  13.897 -12.867  0.00  0.00    +0.000 HD
ENDBRANCH   6   9
TORSDOF 2
ENDMDL
