MODEL 1
REMARK VINA RESULT:    -4.148      0.000      0.000
REMARK INTER + INTRA:          -6.271
REMARK INTER:                  -5.603
REMARK INTRA:                  -0.668
REMARK UNBOUND:                -0.668
REMARK  Name = 
REMARK  10 active torsions:
REMARK  status: ('A' for Active; 'I' for Inactive)
REMARK    1  A    between atoms: C_1  and  C_2
REMARK    2  A    between atoms: C_5  and  N_8
REMARK    3  A    between atoms: N_8  and  C_9
REMARK    4  A    between atoms: N_8  and  C_13
REMARK    5  A    between atoms: C_9  and  C_10
REMARK    6  A    between atoms: C_10  and  C_11
REMARK    7  A    between atoms: C_10  and  O_12
REMARK    8  A    between atoms: C_13  and  C_14
REMARK    9  A    between atoms: C_14  and  C_15
REMARK   10  A    between atoms: C_14  and  O_16
REMARK                            x       y       z     vdW  Elec       q    Type
REMARK                         _______ _______ _______ _____ _____    ______ ____
ROOT
ATOM      1  N   UNL     1     -15.965  16.245  -9.861  0.00  0.00    +0.000 N 
ENDROOT
BRANCH   1   6
ATOM      2  C   UNL     1     -15.861  11.720  -6.277  0.00  0.00    +0.000 C 
ATOM      3  C   UNL     1     -15.908  12.904  -7.194  0.00  0.00    +0.000 A 
ATOM      4  C   UNL     1     -16.633  12.860  -8.380  0.00  0.00    +0.000 A 
ATOM      5  C   UNL     1     -16.649  13.961  -9.252  0.00  0.00    +0.000 A 
ATOM      6  C   UNL     1     -15.929  15.143  -8.998  0.00  0.00    +0.000 A 
ATOM      7  C   UNL     1     -15.209  15.153  -7.789  0.00  0.00    +0.000 A 
ATOM      8  C   UNL     1     -15.187  14.059  -6.908  0.00  0.00    +0.000 A 
ENDBRANCH   1   6
BRANCH   1   9
ATOM      9  C   UNL     1     -15.438  17.557  -9.415  0.00  0.00    +0.000 C 
BRANCH   9  10
ATOM     10  C   UNL     1     -13.998  17.827  -9.917  0.00  0.00    +0.000 C 
ATOM     11  C   UNL     1     -13.052  18.076  -8.749  0.00  0.00    +0.000 C 
BRANCH  10  12
ATOM     12  O   UNL     1     -13.496  16.712 -10.666  0.00  0.00    +0.000 OA
ATOM     13  H   UNL     1     -13.339  17.007 -11.578  0.00  0.00    +0.000 HD
ENDBRANCH  10  12
ENDBRANCH   9  10
ENDBRANCH   1   9
BRANCH   1  14
ATOM     14  C   UNL     1     -16.937  16.311 -10.983  0.00  0.00    +0.000 C 
BRANCH  14  15
ATOM     15  C   UNL     1     -16.283  15.972 -12.344  0.00  0.00    +0.000 C 
ATOM     16  C   UNL     1     -15.845  17.206 -13.123  0.00  0.00    +0.000 C 
BRANCH  15  17
ATOM     17  O   UNL     1     -15.146  15.124 -12.185  0.00  0.00    +0.000 OA
ATOM     18  H   UNL     1     -15.448  14.405 -11.595  0.00  0.00    +0.000 HD
ENDBRANCH  15  17
ENDBRANCH  14  15
ENDBRANCH   1  14
TORSDOF 7
ENDMDL
MODEL 2
REMARK VINA RESULT:    -4.019     20.532     22.615
REMARK INTER + INTRA:          -6.096
REMARK INTER:                  -5.678
REMARK INTRA:                  -0.418
REMARK UNBOUND:                -0.668
REMARK  Name = 
REMARK  10 active torsions:
REMARK  status: ('A' for Active; 'I' for Inactive)
REMARK    1  A    between atoms: C_1  and  C_2
REMARK    2  A    between atoms: C_5  and  N_8
REMARK    3  A    between atoms: N_8  and  C_9
REMARK    4  A    between atoms: N_8  and  C_13
REMARK    5  A    between atoms: C_9  and  C_10
REMARK    6  A    between atoms: C_10  and  C_11
REMARK    7  A    between atoms: C_10  and  O_12
REMARK    8  A    between atoms: C_13  and  C_14
REMARK    9  A    between atoms: C_14  and  C_15
REMARK   10  A    between atoms: C_14  and  O_16
REMARK                            x       y       z     vdW  Elec       q    Type
REMARK                         _______ _______ _______ _____ _____    ______ ____
ROOT
ATOM      1  N   UNL     1      -2.285  13.691 -27.155  0.00  0.00    +0.000 N 
ENDROOT
BRANCH   1   6
ATOM      2  C   UNL     1       2.182  10.059 -27.578  0.00  0.00    +0.000 C 
ATOM      3  C   UNL     1       1.026  11.008 -27.492  0.00  0.00    +0.000 A 
ATOM      4  C   UNL     1       1.208  12.317 -27.058  0.00  0.00    +0.000 A 
ATOM      5  C   UNL     1       0.116  13.194 -26.950  0.00  0.00    +0.000 A 
ATOM      6  C   UNL     1      -1.204  12.806 -27.246  0.00  0.00    +0.000 A 
ATOM      7  C   UNL     1      -1.349  11.477 -27.684  0.00  0.00    +0.000 A 
ATOM      8  C   UNL     1      -0.266  10.591 -27.798  0.00  0.00    +0.000 A 
ENDBRANCH   1   6
BRANCH   1   9
ATOM      9  C   UNL     1      -2.226  14.845 -26.227  0.00  0.00    +0.000 C 
BRANCH   9  10
ATOM     10  C   UNL     1      -2.387  16.206 -26.949  0.00  0.00    +0.000 C 
ATOM     11  C   UNL     1      -3.221  17.170 -26.114  0.00  0.00    +0.000 C 
BRANCH  10  12
ATOM     12  O   UNL     1      -1.111  16.815 -27.189  0.00  0.00    +0.000 OA
ATOM     13  H   UNL     1      -0.879  16.672 -28.122  0.00  0.00    +0.000 HD
ENDBRANCH  10  12
ENDBRANCH   9  10
ENDBRANCH   1   9
BRANCH   1  14
ATOM     14  C   UNL     1      -3.657  13.272 -27.542  0.00  0.00    +0.000 C 
BRANCH  14  15
ATOM     15  C   UNL     1      -4.626  13.260 -26.336  0.00  0.00    +0.000 C 
ATOM     16  C   UNL     1      -6.047  12.854 -26.712  0.00  0.00    +0.000 C 
BRANCH  15  17
ATOM     17  O   UNL     1      -4.175  12.382 -25.306  0.00  0.00    +0.000 OA
ATOM     18  H   UNL     1      -3.985  12.965 -24.543  0.00  0.00    +0.000 HD
ENDBRANCH  15  17
ENDBRANCH  14  15
ENDBRANCH   1  14
TORSDOF 7
ENDMDL
MODEL 3
REMARK VINA RESULT:    -3.899     20.602     22.787
REMARK INTER + INTRA:          -5.934
REMARK INTER:                  -5.394
REMARK INTRA:                  -0.540
REMARK UNBOUND:                -0.668
REMARK  Name = 
REMARK  10 active torsions:
REMARK  status: ('A' for Active; 'I' for Inactive)
REMARK    1  A    between atoms: C_1  and  C_2
REMARK    2  A    between atoms: C_5  and  N_8
REMARK    3  A    between atoms: N_8  and  C_9
REMARK    4  A    between atoms: N_8  and  C_13
REMARK    5  A    between atoms: C_9  and  C_10
REMARK    6  A    between atoms: C_10  and  C_11
REMARK    7  A    between atoms: C_10  and  O_12
REMARK    8  A    between atoms: C_13  and  C_14
REMARK    9  A    between atoms: C_14  and  C_15
REMARK   10  A    between atoms: C_14  and  O_16
REMARK                            x       y       z     vdW  Elec       q    Type
REMARK                         _______ _______ _______ _____ _____    ______ ____
ROOT
ATOM      1  N   UNL     1      -2.173  13.698 -26.661  0.00  0.00    +0.000 N 
ENDROOT
BRANCH   1   6
ATOM      2  C   UNL     1       2.143  10.077 -27.925  0.00  0.00    +0.000 C 
ATOM      3  C   UNL     1       1.023  11.024 -27.621  0.00  0.00    +0.000 A 
ATOM      4  C   UNL     1       1.281  12.312 -27.162  0.00  0.00    +0.000 A 
ATOM      5  C   UNL     1       0.227  13.186 -26.850  0.00  0.00    +0.000 A 
ATOM      6  C   UNL     1      -1.126  12.815 -26.956  0.00  0.00    +0.000 A 
ATOM      7  C   UNL     1      -1.350  11.507 -27.424  0.00  0.00    +0.000 A 
ATOM      8  C   UNL     1      -0.305  10.624 -27.742  0.00  0.00    +0.000 A 
ENDBRANCH   1   6
BRANCH   1   9
ATOM      9  C   UNL     1      -3.501  13.513 -27.294  0.00  0.00    +0.000 C 
BRANCH   9  10
ATOM     10  C   UNL     1      -4.647  13.398 -26.259  0.00  0.00    +0.000 C 
ATOM     11  C   UNL     1      -5.906  12.828 -26.902  0.00  0.00    +0.000 C 
BRANCH  10  12
ATOM     12  O   UNL     1      -4.276  12.540 -25.172  0.00  0.00    +0.000 OA
ATOM     13  H   UNL     1      -4.349  13.049 -24.348  0.00  0.00    +0.000 HD
ENDBRANCH  10  12
ENDBRANCH   9  10
ENDBRANCH   1   9
BRANCH   1  14
ATOM     14  C   UNL     1      -1.903  15.071 -26.164  0.00  0.00    +0.000 C 
BRANCH  14  15
ATOM     15  C   UNL     1      -2.096  16.140 -27.267  0.00  0.00    +0.000 C 
ATOM     16  C   UNL     1      -3.108  17.215 -26.888  0.00  0.00    +0.000 C 
BRANCH  15  17
ATOM     17  O   UNL     1      -0.867  16.786 -27.597  0.00  0.00    +0.000 OA
ATOM     18  H   UNL     1      -0.703  17.408 -26.860  0.00  0.00    +0.000 HD
ENDBRANCH  15  17
ENDBRANCH  14  15
ENDBRANCH   1  14
TORSDOF 7
ENDMDL
MODEL 4
REMARK VINA RESULT:    -3.708      3.011      4.348
REMARK INTER + INTRA:          -5.676
REMARK INTER:                  -5.129
REMARK INTRA:                  -0.547
REMARK UNBOUND:                -0.668
REMARK  Name = 
REMARK  10 active torsions:
REMARK  status: ('A' for Active; 'I' for Inactive)
REMARK    1  A    between atoms: C_1  and  C_2
REMARK    2  A    between atoms: C_5  and  N_8
REMARK    3  A    between atoms: N_8  and  C_9
REMARK    4  A    between atoms: N_8  and  C_13
REMARK    5  A    between atoms: C_9  and  C_10
REMARK    6  A    between atoms: C_10  and  C_11
REMARK    7  A    between atoms: C_10  and  O_12
REMARK    8  A    between atoms: C_13  and  C_14
REMARK    9  A    between atoms: C_14  and  C_15
REMARK   10  A    between atoms: C_14  and  O_16
REMARK                            x       y       z     vdW  Elec       q    Type
REMARK                         _______ _______ _______ _____ _____    ______ ____
ROOT
ATOM      1  N   UNL     1     -14.683  17.694 -11.590  0.00  0.00    +0.000 N 
ENDROOT
BRANCH   1   6
ATOM      2  C   UNL     1     -11.496  17.770  -6.777  0.00  0.00    +0.000 C 
ATOM      3  C   UNL     1     -12.335  17.771  -8.018  0.00  0.00    +0.000 A 
ATOM      4  C   UNL     1     -13.524  17.051  -8.077  0.00  0.00    +0.000 A 
ATOM      5  C   UNL     1     -14.291  17.031  -9.253  0.00  0.00    +0.000 A 
ATOM      6  C   UNL     1     -13.903  17.703 -10.427  0.00  0.00    +0.000 A 
ATOM      7  C   UNL     1     -12.697  18.421 -10.330  0.00  0.00    +0.000 A 
ATOM      8  C   UNL     1     -11.921  18.451  -9.160  0.00  0.00    +0.000 A 
ENDBRANCH   1   6
BRANCH   1   9
ATOM      9  C   UNL     1     -14.303  18.542 -12.746  0.00  0.00    +0.000 C 
BRANCH   9  10
ATOM     10  C   UNL     1     -13.610  17.741 -13.875  0.00  0.00    +0.000 C 
ATOM     11  C   UNL     1     -13.971  18.306 -15.244  0.00  0.00    +0.000 C 
BRANCH  10  12
ATOM     12  O   UNL     1     -12.183  17.786 -13.738  0.00  0.00    +0.000 OA
ATOM     13  H   UNL     1     -11.792  17.685 -14.621  0.00  0.00    +0.000 HD
ENDBRANCH  10  12
ENDBRANCH   9  10
ENDBRANCH   1   9
BRANCH   1  14
ATOM     14  C   UNL     1     -16.112  17.291 -11.555  0.00  0.00    +0.000 C 
BRANCH  14  15
ATOM     15  C   UNL     1     -16.347  15.914 -12.221  0.00  0.00    +0.000 C 
ATOM     16  C   UNL     1     -16.804  16.020 -13.671  0.00  0.00    +0.000 C 
BRANCH  15  17
ATOM     17  O   UNL     1     -15.173  15.104 -12.186  0.00  0.00    +0.000 OA
ATOM     18  H   UNL     1     -14.738  15.326 -11.338  0.00  0.00    +0.000 HD
ENDBRANCH  15  17
ENDBRANCH  14  15
ENDBRANCH   1  14
TORSDOF 7
ENDMDL
MODEL 5
REMARK VINA RESULT:    -3.672     21.561     23.576
REMARK INTER + INTRA:          -5.628
REMARK INTER:                  -5.096
REMARK INTRA:                  -0.532
REMARK UNBOUND:                -0.668
REMARK  Name = 
REMARK  10 active torsions:
REMARK  status: ('A' for Active; 'I' for Inactive)
REMARK    1  A    between atoms: C_1  and  C_2
REMARK    2  A    between atoms: C_5  and  N_8
REMARK    3  A    between atoms: N_8  and  C_9
REMARK    4  A    between atoms: N_8  and  C_13
REMARK    5  A    between atoms: C_9  and  C_10
REMARK    6  A    between atoms: C_10  and  C_11
REMARK    7  A    between atoms: C_10  and  O_12
REMARK    8  A    between atoms: C_13  and  C_14
REMARK    9  A    between atoms: C_14  and  C_15
REMARK   10  A    between atoms: C_14  and  O_16
REMARK                            x       y       z     vdW  Elec       q    Type
REMARK                         _______ _______ _______ _____ _____    ______ ____
ROOT
ATOM      1  N   UNL     1       0.775  13.440 -27.026  0.00  0.00    +0.000 N 
ENDROOT
BRANCH   1   6
ATOM      2  C   UNL     1      -4.969  14.006 -27.126  0.00  0.00    +0.000 C 
ATOM      3  C   UNL     1      -3.477  13.875 -27.119  0.00  0.00    +0.000 A 
ATOM      4  C   UNL     1      -2.845  12.865 -27.837  0.00  0.00    +0.000 A 
ATOM      5  C   UNL     1      -1.448  12.728 -27.803  0.00  0.00    +0.000 A 
ATOM      6  C   UNL     1      -0.619  13.570 -27.040  0.00  0.00    +0.000 A 
ATOM      7  C   UNL     1      -1.291  14.581 -26.328  0.00  0.00    +0.000 A 
ATOM      8  C   UNL     1      -2.688  14.730 -26.355  0.00  0.00    +0.000 A 
ENDBRANCH   1   6
BRANCH   1   9
ATOM      9  C   UNL     1       1.625  14.591 -26.636  0.00  0.00    +0.000 C 
BRANCH   9  10
ATOM     10  C   UNL     1       2.738  14.202 -25.633  0.00  0.00    +0.000 C 
ATOM     11  C   UNL     1       3.541  15.426 -25.209  0.00  0.00    +0.000 C 
BRANCH  10  12
ATOM     12  O   UNL     1       2.182  13.605 -24.453  0.00  0.00    +0.000 OA
ATOM     13  H   UNL     1       2.577  14.041 -23.680  0.00  0.00    +0.000 HD
ENDBRANCH  10  12
ENDBRANCH   9  10
ENDBRANCH   1   9
BRANCH   1  14
ATOM     14  C   UNL     1       1.459  12.408 -27.846  0.00  0.00    +0.000 C 
BRANCH  14  15
ATOM     15  C   UNL     1       1.384  11.003 -27.200  0.00  0.00    +0.000 C 
ATOM     16  C   UNL     1       2.228   9.963 -27.927  0.00  0.00    +0.000 C 
BRANCH  15  17
ATOM     17  O   UNL     1       1.794  11.029 -25.834  0.00  0.00    +0.000 OA
ATOM     18  H   UNL     1       1.154  10.455 -25.367  0.00  0.00    +0.000 HD
ENDBRANCH  15  17
ENDBRANCH  14  15
ENDBRANCH   1  14
TORSDOF 7
ENDMDL
MODEL 6
REMARK VINA RESULT:    -3.586     19.775     20.950
REMARK INTER + INTRA:          -5.512
REMARK INTER:                  -5.054
REMARK INTRA:                  -0.458
REMARK UNBOUND:                -0.668
REMARK  Name = 
REMARK  10 active torsions:
REMARK  status: ('A' for Active; 'I' for Inactive)
REMARK    1  A    between atoms: C_1  and  C_2
REMARK    2  A    between atoms: C_5  and  N_8
REMARK    3  A    between atoms: N_8  and  C_9
REMARK    4  A    between atoms: N_8  and  C_13
REMARK    5  A    between atoms: C_9  and  C_10
REMARK    6  A    between atoms: C_10  and  C_11
REMARK    7  A    between atoms: C_10  and  O_12
REMARK    8  A    between atoms: C_13  and  C_14
REMARK    9  A    between atoms: C_14  and  C_15
REMARK   10  A    between atoms: C_14  and  O_16
REMARK                            x       y       z     vdW  Elec       q    Type
REMARK                         _______ _______ _______ _____ _____    ______ ____
ROOT
ATOM      1  N   UNL     1      -4.262  14.726 -26.995  0.00  0.00    +0.000 N 
ENDROOT
BRANCH   1   6
ATOM      2  C   UNL     1      -9.196  11.775 -27.520  0.00  0.00    +0.000 C 
ATOM      3  C   UNL     1      -7.924  12.551 -27.362  0.00  0.00    +0.000 A 
ATOM      4  C   UNL     1      -7.784  13.816 -27.923  0.00  0.00    +0.000 A 
ATOM      5  C   UNL     1      -6.579  14.526 -27.798  0.00  0.00    +0.000 A 
ATOM      6  C   UNL     1      -5.454  14.004 -27.133  0.00  0.00    +0.000 A 
ATOM      7  C   UNL     1      -5.632  12.724 -26.577  0.00  0.00    +0.000 A 
ATOM      8  C   UNL     1      -6.832  12.004 -26.693  0.00  0.00    +0.000 A 
ENDBRANCH   1   6
BRANCH   1   9
ATOM      9  C   UNL     1      -3.098  14.115 -26.309  0.00  0.00    +0.000 C 
BRANCH   9  10
ATOM     10  C   UNL     1      -2.107  13.444 -27.291  0.00  0.00    +0.000 C 
ATOM     11  C   UNL     1      -0.665  13.768 -26.917  0.00  0.00    +0.000 C 
BRANCH  10  12
ATOM     12  O   UNL     1      -2.258  12.018 -27.281  0.00  0.00    +0.000 OA
ATOM     13  H   UNL     1      -3.108  11.802 -27.698  0.00  0.00    +0.000 HD
ENDBRANCH  10  12
ENDBRANCH   9  10
ENDBRANCH   1   9
BRANCH   1  14
ATOM     14  C   UNL     1      -4.252  16.211 -27.037  0.00  0.00    +0.000 C 
BRANCH  14  15
ATOM     15  C   UNL     1      -2.917  16.801 -26.524  0.00  0.00    +0.000 C 
ATOM     16  C   UNL     1      -2.153  17.574 -27.592  0.00  0.00    +0.000 C 
BRANCH  15  17
ATOM     17  O   UNL     1      -3.118  17.669 -25.410  0.00  0.00    +0.000 OA
ATOM     18  H   UNL     1      -3.718  17.179 -24.812  0.00  0.00    +0.000 HD
ENDBRANCH  15  17
ENDBRANCH  14  15
ENDBRANCH   1  14
TORSDOF 7
ENDMDL
MODEL 7
REMARK VINA RESULT:    -3.483     19.958     22.126
REMARK INTER + INTRA:          -5.372
REMARK INTER:                  -4.699
REMARK INTRA:                  -0.673
REMARK UNBOUND:                -0.668
REMARK  Name = 
REMARK  10 active torsions:
REMARK  status: ('A' for Active; 'I' for Inactive)
REMARK    1  A    between atoms: C_1  and  C_2
REMARK    2  A    between atoms: C_5  and  N_8
REMARK    3  A    between atoms: N_8  and  C_9
REMARK    4  A    between atoms: N_8  and  C_13
REMARK    5  A    between atoms: C_9  and  C_10
REMARK    6  A    between atoms: C_10  and  C_11
REMARK    7  A    between atoms: C_10  and  O_12
REMARK    8  A    between atoms: C_13  and  C_14
REMARK    9  A    between atoms: C_14  and  C_15
REMARK   10  A    between atoms: C_14  and  O_16
REMARK                            x       y       z     vdW  Elec       q    Type
REMARK                         _______ _______ _______ _____ _____    ______ ____
ROOT
ATOM      1  N   UNL     1      -3.207  13.914 -27.329  0.00  0.00    +0.000 N 
ENDROOT
BRANCH   1   6
ATOM      2  C   UNL     1       1.657  10.805 -27.234  0.00  0.00    +0.000 C 
ATOM      3  C   UNL     1       0.391  11.607 -27.234  0.00  0.00    +0.000 A 
ATOM      4  C   UNL     1      -0.826  11.020 -27.565  0.00  0.00    +0.000 A 
ATOM      5  C   UNL     1      -2.004  11.784 -27.592  0.00  0.00    +0.000 A 
ATOM      6  C   UNL     1      -2.025  13.163 -27.318  0.00  0.00    +0.000 A 
ATOM      7  C   UNL     1      -0.777  13.722 -26.986  0.00  0.00    +0.000 A 
ATOM      8  C   UNL     1       0.409  12.970 -26.952  0.00  0.00    +0.000 A 
ENDBRANCH   1   6
BRANCH   1   9
ATOM      9  C   UNL     1      -3.209  15.289 -27.882  0.00  0.00    +0.000 C 
BRANCH   9  10
ATOM     10  C   UNL     1      -3.633  16.355 -26.841  0.00  0.00    +0.000 C 
ATOM     11  C   UNL     1      -2.690  17.552 -26.871  0.00  0.00    +0.000 C 
BRANCH  10  12
ATOM     12  O   UNL     1      -4.961  16.829 -27.102  0.00  0.00    +0.000 OA
ATOM     13  H   UNL     1      -5.475  16.752 -26.281  0.00  0.00    +0.000 HD
ENDBRANCH  10  12
ENDBRANCH   9  10
ENDBRANCH   1   9
BRANCH   1  14
ATOM     14  C   UNL     1      -4.313  13.621 -26.381  0.00  0.00    +0.000 C 
BRANCH  14  15
ATOM     15  C   UNL     1      -5.618  13.224 -27.111  0.00  0.00    +0.000 C 
ATOM     16  C   UNL     1      -6.388  12.115 -26.404  0.00  0.00    +0.000 C 
BRANCH  15  17
ATOM     17  O   UNL     1      -6.494  14.339 -27.268  0.00  0.00    +0.000 OA
ATOM     18  H   UNL     1      -7.327  13.960 -27.614  0.00  0.00    +0.000 HD
ENDBRANCH  15  17
ENDBRANCH  14  15
ENDBRANCH   1  14
TORSDOF 7
ENDMDL
MODEL 8
REMARK VINA RESULT:    -3.436      1.756      5.467
REMARK INTER + INTRA:          -5.309
REMARK INTER:                  -4.744
REMARK INTRA:                  -0.565
REMARK UNBOUND:                -0.668
REMARK  Name = 
REMARK  10 active torsions:
REMARK  status: ('A' for Active; 'I' for Inactive)
REMARK    1  A    between atoms: C_1  and  C_2
REMARK    2  A    between atoms: C_5  and  N_8
REMARK    3  A    between atoms: N_8  and  C_9
REMARK    4  A    between atoms: N_8  and  C_13
REMARK    5  A    between atoms: C_9  and  C_10
REMARK    6  A    between atoms: C_10  and  C_11
REMARK    7  A    between atoms: C_10  and  O_12
REMARK    8  A    between atoms: C_13  and  C_14
REMARK    9  A    between atoms: C_14  and  C_15
REMARK   10  A    between atoms: C_14  and  O_16
REMARK                            x       y       z     vdW  Elec       q    Type
REMARK                         _______ _______ _______ _____ _____    ______ ____
ROOT
ATOM      1  N   UNL     1     -15.996  15.884  -9.466  0.00  0.00    +0.000 N 
ENDROOT
BRANCH   1   6
ATOM      2  C   UNL     1     -14.548  17.243 -14.887  0.00  0.00    +0.000 C 
ATOM      3  C   UNL     1     -14.902  16.879 -13.478  0.00  0.00    +0.000 A 
ATOM      4  C   UNL     1     -15.622  15.722 -13.199  0.00  0.00    +0.000 A 
ATOM      5  C   UNL     1     -15.978  15.401 -11.879  0.00  0.00    +0.000 A 
ATOM      6  C   UNL     1     -15.656  16.221 -10.782  0.00  0.00    +0.000 A 
ATOM      7  C   UNL     1     -14.925  17.381 -11.101  0.00  0.00    +0.000 A 
ATOM      8  C   UNL     1     -14.562  17.713 -12.417  0.00  0.00    +0.000 A 
ENDBRANCH   1   6
BRANCH   1   9
ATOM      9  C   UNL     1     -16.894  14.734  -9.202  0.00  0.00    +0.000 C 
BRANCH   9  10
ATOM     10  C   UNL     1     -16.135  13.487  -8.686  0.00  0.00    +0.000 C 
ATOM     11  C   UNL     1     -16.927  12.780  -7.593  0.00  0.00    +0.000 C 
BRANCH  10  12
ATOM     12  O   UNL     1     -15.907  12.548  -9.747  0.00  0.00    +0.000 OA
ATOM     13  H   UNL     1     -15.970  13.026 -10.591  0.00  0.00    +0.000 HD
ENDBRANCH  10  12
ENDBRANCH   9  10
ENDBRANCH   1   9
BRANCH   1  14
ATOM     14  C   UNL     1     -15.930  16.889  -8.374  0.00  0.00    +0.000 C 
BRANCH  14  15
ATOM     15  C   UNL     1     -14.714  16.661  -7.444  0.00  0.00    +0.000 C 
ATOM     16  C   UNL     1     -15.075  15.936  -6.152  0.00  0.00    +0.000 C 
BRANCH  15  17
ATOM     17  O   UNL     1     -13.684  15.918  -8.094  0.00  0.00    +0.000 OA
ATOM     18  H   UNL     1     -13.329  16.522  -8.777  0.00  0.00    +0.000 HD
ENDBRANCH  15  17
ENDBRANCH  14  15
ENDBRANCH   1  14
TORSDOF 7
ENDMDL
MODEL 9
REMARK VINA RESULT:    -2.180      2.014      3.354
REMARK INTER + INTRA:          -3.613
REMARK INTER:                  -3.050
REMARK INTRA:                  -0.563
REMARK UNBOUND:                -0.668
REMARK  Name = 
REMARK  10 active torsions:
REMARK  status: ('A' for Active; 'I' for Inactive)
REMARK    1  A    between atoms: C_1  and  C_2
REMARK    2  A    between atoms: C_5  and  N_8
REMARK    3  A    between atoms: N_8  and  C_9
REMARK    4  A    between atoms: N_8  and  C_13
REMARK    5  A    between atoms: C_9  and  C_10
REMARK    6  A    between atoms: C_10  and  C_11
REMARK    7  A    between atoms: C_10  and  O_12
REMARK    8  A    between atoms: C_13  and  C_14
REMARK    9  A    between atoms: C_14  and  C_15
REMARK   10  A    between atoms: C_14  and  O_16
REMARK                            x       y       z     vdW  Elec       q    Type
REMARK                         _______ _______ _______ _____ _____    ______ ____
ROOT
ATOM      1  N   UNL     1     -15.715  16.952 -12.547  0.00  0.00    +0.000 N 
ENDROOT
BRANCH   1   6
ATOM      2  C   UNL     1     -14.987  15.532  -6.999  0.00  0.00    +0.000 C 
ATOM      3  C   UNL     1     -15.193  15.918  -8.432  0.00  0.00    +0.000 A 
ATOM      4  C   UNL     1     -16.122  15.252  -9.224  0.00  0.00    +0.000 A 
ATOM      5  C   UNL     1     -16.289  15.597 -10.575  0.00  0.00    +0.000 A 
ATOM      6  C   UNL     1     -15.529  16.599 -11.204  0.00  0.00    +0.000 A 
ATOM      7  C   UNL     1     -14.602  17.253 -10.373  0.00  0.00    +0.000 A 
ATOM      8  C   UNL     1     -14.425  16.919  -9.020  0.00  0.00    +0.000 A 
ENDBRANCH   1   6
BRANCH   1   9
ATOM      9  C   UNL     1     -14.980  18.104 -13.122  0.00  0.00    +0.000 C 
BRANCH   9  10
ATOM     10  C   UNL     1     -13.731  17.676 -13.931  0.00  0.00    +0.000 C 
ATOM     11  C   UNL     1     -13.564  18.542 -15.174  0.00  0.00    +0.000 C 
BRANCH  10  12
ATOM     12  O   UNL     1     -12.540  17.796 -13.141  0.00  0.00    +0.000 OA
ATOM     13  H   UNL     1     -12.168  16.907 -13.020  0.00  0.00    +0.000 HD
ENDBRANCH  10  12
ENDBRANCH   9  10
ENDBRANCH   1   9
BRANCH   1  14
ATOM     14  C   UNL     1     -16.953  16.574 -13.277  0.00  0.00    +0.000 C 
BRANCH  14  15
ATOM     15  C   UNL     1     -16.711  15.418 -14.277  0.00  0.00    +0.000 C 
ATOM     16  C   UNL     1     -16.482  15.898 -15.705  0.00  0.00    +0.000 C 
BRANCH  15  17
ATOM     17  O   UNL     1     -15.594  14.616 -13.896  0.00  0.00    +0.000 OA
ATOM     18  H   UNL     1     -14.810  15.170 -14.084  0.00  0.00    +0.000 HD
ENDBRANCH  15  17
ENDBRANCH  14  15
ENDBRANCH   1  14
TORSDOF 7
ENDMDL
