MODEL 1
REMARK VINA RESULT:    -4.323      0.000      0.000
REMARK INTER + INTRA:          -4.744
REMARK INTER:                  -4.702
REMARK INTRA:                  -0.042
REMARK UNBOUND:                -0.042
REMARK  Name = 
REMARK  3 active torsions:
REMARK  status: ('A' for Active; 'I' for Inactive)
REMARK    1  A    between atoms: C_1  and  O_2
REMARK    2  A    between atoms: O_2  and  C_3
REMARK    3  A    between atoms: C_8  and  O_9
REMARK                            x       y       z     vdW  Elec       q    Type
REMARK                         _______ _______ _______ _____ _____    ______ ____
ROOT
ATOM      1  C   UNL     1     -16.256  12.717  -8.269  0.00  0.00    +0.000 A 
ATOM      2  C   UNL     1     -17.017  13.098  -7.165  0.00  0.00    +0.000 A 
ATOM      3  C   UNL     1     -16.835  12.455  -5.934  0.00  0.00    +0.000 A 
ATOM      4  C   UNL     1     -15.894  11.432  -5.802  0.00  0.00    +0.000 A 
ATOM      5  C   UNL     1     -15.129  11.046  -6.900  0.00  0.00    +0.000 A 
ATOM      6  C   UNL     1     -15.317  11.689  -8.117  0.00  0.00    +0.000 A 
ENDROOT
BRANCH   1   8
ATOM      7  C   UNL     1     -16.644  14.640  -9.610  0.00  0.00    +0.000 C 
ATOM      8  O   UNL     1     -16.328  13.255  -9.529  0.00  0.00    +0.000 OA
ENDBRANCH   1   8
BRANCH   6   9
ATOM      9  O   UNL     1     -14.554  11.292  -9.183  0.00  0.00    +0.000 OA
ATOM     10  H   UNL     1     -14.958  10.455  -9.480  0.00  0.00    +0.000 HD
ENDBRANCH   6   9
TORSDOF 2
ENDMDL
MODEL 2
REMARK VINA RESULT:    -3.871     17.265     18.656
REMARK INTER + INTRA:          -4.252
REMARK INTER:                  -4.202
REMARK INTRA:                  -0.050
REMARK UNBOUND:                -0.042
REMARK  Name = 
REMARK  3 active torsions:
REMARK  status: ('A' for Active; 'I' for Inactive)
REMARK    1  A    between atoms: C_1  and  O_2
REMARK    2  A    between atoms: O_2  and  C_3
REMARK    3  A    between atoms: C_8  and  O_9
REMARK                            x       y       z     vdW  Elec       q    Type
REMARK                         _______ _______ _______ _____ _____    ______ ____
ROOT
ATOM      1  C   UNL     1     -10.558  16.010 -24.845  0.00  0.00    +0.000 A 
ATOM      2  C   UNL     1      -9.973  16.469 -26.024  0.00  0.00    +0.000 A 
ATOM      3  C   UNL     1      -9.779  15.590 -27.097  0.00  0.00    +0.000 A 
ATOM      4  C   UNL     1     -10.166  14.253 -26.996  0.00  0.00    +0.000 A 
ATOM      5  C   UNL     1     -10.752  13.786 -25.822  0.00  0.00    +0.000 A 
ATOM      6  C   UNL     1     -10.940  14.665 -24.762  0.00  0.00    +0.000 A 
ENDROOT
BRANCH   1   8
ATOM      7  C   UNL     1      -9.706  17.472 -23.177  0.00  0.00    +0.000 C 
ATOM      8  O   UNL     1     -10.807  16.754 -23.720  0.00  0.00    +0.000 OA
ENDBRANCH   1   8
BRANCH   6   9
ATOM      9  O   UNL     1     -11.518  14.183 -23.618  0.00  0.00    +0.000 OA
ATOM     10  H   UNL     1     -11.789  14.979 -23.122  0.00  0.00    +0.000 HD
ENDBRANCH   6   9
TORSDOF 2
ENDMDL
MODEL 3
REMARK VINA RESULT:    -3.855     17.774     19.434
REMARK INTER + INTRA:          -4.234
REMARK INTER:                  -4.182
REMARK INTRA:                  -0.053
REMARK UNBOUND:                -0.042
REMARK  Name = 
REMARK  3 active torsions:
REMARK  status: ('A' for Active; 'I' for Inactive)
REMARK    1  A    between atoms: C_1  and  O_2
REMARK    2  A    between atoms: O_2  and  C_3
REMARK    3  A    between atoms: C_8  and  O_9
REMARK                            x       y       z     vdW  Elec       q    Type
REMARK                         _______ _______ _______ _____ _____    ______ ____
ROOT
ATOM      1  C   UNL     1     -10.215  14.389 -26.551  0.00  0.00    +0.000 A 
ATOM      2  C   UNL     1      -9.960  15.625 -27.145  0.00  0.00    +0.000 A 
ATOM      3  C   UNL     1     -10.101  16.801 -26.399  0.00  0.00    +0.000 A 
ATOM      4  C   UNL     1     -10.496  16.748 -25.061  0.00  0.00    +0.000 A 
ATOM      5  C   UNL     1     -10.752  15.517 -24.461  0.00  0.00    +0.000 A 
ATOM      6  C   UNL     1     -10.610  14.355 -25.208  0.00  0.00    +0.000 A 
ENDROOT
BRANCH   1   8
ATOM      7  C   UNL     1      -8.812  12.734 -27.521  0.00  0.00    +0.000 C 
ATOM      8  O   UNL     1     -10.119  13.162 -27.158  0.00  0.00    +0.000 OA
ENDBRANCH   1   8
BRANCH   6   9
ATOM      9  O   UNL     1     -10.868  13.158 -24.597  0.00  0.00    +0.000 OA
ATOM     10  H   UNL     1     -11.500  13.373 -23.885  0.00  0.00    +0.000 HD
ENDBRANCH   6   9
TORSDOF 2
ENDMDL
MODEL 4
REMARK VINA RESULT:    -3.561      1.291      1.848
REMARK INTER + INTRA:          -3.915
REMARK INTER:                  -3.868
REMARK INTRA:                  -0.047
REMARK UNBOUND:                -0.042
REMARK  Name = 
REMARK  3 active torsions:
REMARK  status: ('A' for Active; 'I' for Inactive)
REMARK    1  A    between atoms: C_1  and  O_2
REMARK    2  A    between atoms: O_2  and  C_3
REMARK    3  A    between atoms: C_8  and  O_9
REMARK                            x       y       z     vdW  Elec       q    Type
REMARK                         _______ _______ _______ _____ _____    ______ ____
ROOT
ATOM      1  C   UNL     1     -16.443  13.501  -7.547  0.00  0.00    +0.000 A 
ATOM      2  C   UNL     1     -16.296  12.993  -6.258  0.00  0.00    +0.000 A 
ATOM      3  C   UNL     1     -15.662  11.759  -6.059  0.00  0.00    +0.000 A 
ATOM      4  C   UNL     1     -15.176  11.031  -7.146  0.00  0.00    +0.000 A 
ATOM      5  C   UNL     1     -15.319  11.532  -8.438  0.00  0.00    +0.000 A 
ATOM      6  C   UNL     1     -15.948  12.756  -8.625  0.00  0.00    +0.000 A 
ENDROOT
BRANCH   1   8
ATOM      7  C   UNL     1     -16.665  15.829  -7.125  0.00  0.00    +0.000 C 
ATOM      8  O   UNL     1     -17.039  14.688  -7.888  0.00  0.00    +0.000 OA
ENDBRANCH   1   8
BRANCH   6   9
ATOM      9  O   UNL     1     -16.077  13.228  -9.904  0.00  0.00    +0.000 OA
ATOM     10  H   UNL     1     -16.876  13.789  -9.883  0.00  0.00    +0.000 HD
ENDBRANCH   6   9
TORSDOF 2
ENDMDL
MODEL 5
REMARK VINA RESULT:    -3.418     17.452     18.955
REMARK INTER + INTRA:          -3.760
REMARK INTER:                  -3.707
REMARK INTRA:                  -0.053
REMARK UNBOUND:                -0.042
REMARK  Name = 
REMARK  3 active torsions:
REMARK  status: ('A' for Active; 'I' for Inactive)
REMARK    1  A    between atoms: C_1  and  O_2
REMARK    2  A    between atoms: O_2  and  C_3
REMARK    3  A    between atoms: C_8  and  O_9
REMARK                            x       y       z     vdW  Elec       q    Type
REMARK                         _______ _______ _______ _____ _____    ______ ____
ROOT
ATOM      1  C   UNL     1     -10.572  16.153 -24.916  0.00  0.00    +0.000 A 
ATOM      2  C   UNL     1     -11.030  14.915 -24.469  0.00  0.00    +0.000 A 
ATOM      3  C   UNL     1     -10.932  13.791 -25.299  0.00  0.00    +0.000 A 
ATOM      4  C   UNL     1     -10.378  13.901 -26.576  0.00  0.00    +0.000 A 
ATOM      5  C   UNL     1      -9.918  15.135 -27.030  0.00  0.00    +0.000 A 
ATOM      6  C   UNL     1     -10.020  16.244 -26.199  0.00  0.00    +0.000 A 
ENDROOT
BRANCH   1   8
ATOM      7  C   UNL     1      -9.776  17.408 -23.062  0.00  0.00    +0.000 C 
ATOM      8  O   UNL     1     -10.606  17.332 -24.215  0.00  0.00    +0.000 OA
ENDBRANCH   1   8
BRANCH   6   9
ATOM      9  O   UNL     1      -9.560  17.446 -26.668  0.00  0.00    +0.000 OA
ATOM     10  H   UNL     1      -8.812  17.671 -26.083  0.00  0.00    +0.000 HD
ENDBRANCH   6   9
TORSDOF 2
ENDMDL
MODEL 6
REMARK VINA RESULT:    -3.384     20.124     21.317
REMARK INTER + INTRA:          -3.723
REMARK INTER:                  -3.676
REMARK INTRA:                  -0.047
REMARK UNBOUND:                -0.042
REMARK  Name = 
REMARK  3 active torsions:
REMARK  status: ('A' for Active; 'I' for Inactive)
REMARK    1  A    between atoms: C_1  and  O_2
REMARK    2  A    between atoms: O_2  and  C_3
REMARK    3  A    between atoms: C_8  and  O_9
REMARK                            x       y       z     vdW  Elec       q    Type
REMARK                         _______ _______ _______ _____ _____    ______ ____
ROOT
ATOM      1  C   UNL     1      -5.757  13.190 -26.815  0.00  0.00    +0.000 A 
ATOM      2  C   UNL     1      -6.590  13.649 -27.835  0.00  0.00    +0.000 A 
ATOM      3  C   UNL     1      -7.907  13.180 -27.927  0.00  0.00    +0.000 A 
ATOM      4  C   UNL     1      -8.394  12.253 -27.003  0.00  0.00    +0.000 A 
ATOM      5  C   UNL     1      -7.568  11.791 -25.982  0.00  0.00    +0.000 A 
ATOM      6  C   UNL     1      -6.264  12.261 -25.898  0.00  0.00    +0.000 A 
ENDROOT
BRANCH   1   8
ATOM      7  C   UNL     1      -4.171  14.953 -26.663  0.00  0.00    +0.000 C 
ATOM      8  O   UNL     1      -4.453  13.560 -26.605  0.00  0.00    +0.000 OA
ENDBRANCH   1   8
BRANCH   6   9
ATOM      9  O   UNL     1      -5.471  11.791 -24.886  0.00  0.00    +0.000 OA
ATOM     10  H   UNL     1      -4.560  12.008 -25.162  0.00  0.00    +0.000 HD
ENDBRANCH   6   9
TORSDOF 2
ENDMDL
MODEL 7
REMARK VINA RESULT:    -3.213      5.866      7.291
REMARK INTER + INTRA:          -3.536
REMARK INTER:                  -3.490
REMARK INTRA:                  -0.046
REMARK UNBOUND:                -0.042
REMARK  Name = 
REMARK  3 active torsions:
REMARK  status: ('A' for Active; 'I' for Inactive)
REMARK    1  A    between atoms: C_1  and  O_2
REMARK    2  A    between atoms: O_2  and  C_3
REMARK    3  A    between atoms: C_8  and  O_9
REMARK                            x       y       z     vdW  Elec       q    Type
REMARK                         _______ _______ _______ _____ _____    ______ ____
ROOT
ATOM      1  C   UNL     1     -15.642  16.124 -13.966  0.00  0.00    +0.000 A 
ATOM      2  C   UNL     1     -15.786  17.467 -14.310  0.00  0.00    +0.000 A 
ATOM      3  C   UNL     1     -15.798  18.448 -13.310  0.00  0.00    +0.000 A 
ATOM      4  C   UNL     1     -15.668  18.090 -11.967  0.00  0.00    +0.000 A 
ATOM      5  C   UNL     1     -15.524  16.750 -11.615  0.00  0.00    +0.000 A 
ATOM      6  C   UNL     1     -15.513  15.784 -12.614  0.00  0.00    +0.000 A 
ENDROOT
BRANCH   1   8
ATOM      7  C   UNL     1     -14.808  15.216 -15.998  0.00  0.00    +0.000 C 
ATOM      8  O   UNL     1     -15.614  15.063 -14.835  0.00  0.00    +0.000 OA
ENDBRANCH   1   8
BRANCH   6   9
ATOM      9  O   UNL     1     -15.371  14.474 -12.244  0.00  0.00    +0.000 OA
ATOM     10  H   UNL     1     -15.923  13.976 -12.876  0.00  0.00    +0.000 HD
ENDBRANCH   6   9
TORSDOF 2
ENDMDL
MODEL 8
REMARK VINA RESULT:    -3.180     20.728     21.624
REMARK INTER + INTRA:          -3.500
REMARK INTER:                  -3.456
REMARK INTRA:                  -0.044
REMARK UNBOUND:                -0.042
REMARK  Name = 
REMARK  3 active torsions:
REMARK  status: ('A' for Active; 'I' for Inactive)
REMARK    1  A    between atoms: C_1  and  O_2
REMARK    2  A    between atoms: O_2  and  C_3
REMARK    3  A    between atoms: C_8  and  O_9
REMARK                            x       y       z     vdW  Elec       q    Type
REMARK                         _______ _______ _______ _____ _____    ______ ____
ROOT
ATOM      1  C   UNL     1      -5.453  12.953 -26.512  0.00  0.00    +0.000 A 
ATOM      2  C   UNL     1      -5.126  13.831 -27.544  0.00  0.00    +0.000 A 
ATOM      3  C   UNL     1      -4.048  14.714 -27.396  0.00  0.00    +0.000 A 
ATOM      4  C   UNL     1      -3.297  14.723 -26.219  0.00  0.00    +0.000 A 
ATOM      5  C   UNL     1      -3.618  13.849 -25.184  0.00  0.00    +0.000 A 
ATOM      6  C   UNL     1      -4.688  12.977 -25.339  0.00  0.00    +0.000 A 
ENDROOT
BRANCH   1   8
ATOM      7  C   UNL     1      -7.692  12.452 -27.133  0.00  0.00    +0.000 C 
ATOM      8  O   UNL     1      -6.477  12.040 -26.518  0.00  0.00    +0.000 OA
ENDBRANCH   1   8
BRANCH   6   9
ATOM      9  O   UNL     1      -4.985  12.127 -24.307  0.00  0.00    +0.000 OA
ATOM     10  H   UNL     1      -4.641  11.259 -24.593  0.00  0.00    +0.000 HD
ENDBRANCH   6   9
TORSDOF 2
ENDMDL
