MODEL 1
REMARK VINA RESULT:    -4.339      0.000      0.000
REMARK INTER + INTRA:          -4.762
REMARK INTER:                  -4.720
REMARK INTRA:                  -0.042
REMARK UNBOUND:                -0.042
REMARK  Name = 
REMARK  3 active torsions:
REMARK  status: ('A' for Active; 'I' for Inactive)
REMARK    1  A    between atoms: C_1  and  O_2
REMARK    2  A    between atoms: O_2  and  C_3
REMARK    3  A    between atoms: C_8  and  O_9
REMARK                            x       y       z     vdW  Elec       q    Type
REMARK                         _______ _______ _______ _____ _____    ______ ____
ROOT
ATOM      1  C   UNL     1     -16.258  12.719  -8.259  0.00  0.00    +0.000 A 
ATOM      2  C   UNL     1     -16.997  13.096  -7.138  0.00  0.00    +0.000 A 
ATOM      3  C   UNL     1     -16.786  12.452  -5.912  0.00  0.00    +0.000 A 
ATOM      4  C   UNL     1     -15.841  11.431  -5.802  0.00  0.00    +0.000 A 
ATOM      5  C   UNL     1     -15.099  11.049  -6.917  0.00  0.00    +0.000 A 
ATOM      6  C   UNL     1     -15.314  11.693  -8.129  0.00  0.00    +0.000 A 
ENDROOT
BRANCH   1   8
ATOM      7  C   UNL     1     -16.667  14.646  -9.588  0.00  0.00    +0.000 C 
ATOM      8  O   UNL     1     -16.359  13.259  -9.516  0.00  0.00    +0.000 OA
ENDBRANCH   1   8
BRANCH   6   9
ATOM      9  O   UNL     1     -14.573  11.300  -9.211  0.00  0.00    +0.000 OA
ATOM     10  H   UNL     1     -14.089  10.508  -8.906  0.00  0.00    +0.000 HD
ENDBRANCH   6   9
TORSDOF 2
ENDMDL
MODEL 2
REMARK VINA RESULT:    -3.879     17.239     18.667
REMARK INTER + INTRA:          -4.261
REMARK INTER:                  -4.210
REMARK INTRA:                  -0.051
REMARK UNBOUND:                -0.042
REMARK  Name = 
REMARK  3 active torsions:
REMARK  status: ('A' for Active; 'I' for Inactive)
REMARK    1  A    between atoms: C_1  and  O_2
REMARK    2  A    between atoms: O_2  and  C_3
REMARK    3  A    between atoms: C_8  and  O_9
REMARK                            x       y       z     vdW  Elec       q    Type
REMARK                         _______ _______ _______ _____ _____    ______ ____
ROOT
ATOM      1  C   UNL     1     -10.564  16.001 -24.867  0.00  0.00    +0.000 A 
ATOM      2  C   UNL     1      -9.972  16.459 -26.044  0.00  0.00    +0.000 A 
ATOM      3  C   UNL     1      -9.759  15.576 -27.110  0.00  0.00    +0.000 A 
ATOM      4  C   UNL     1     -10.136  14.235 -27.004  0.00  0.00    +0.000 A 
ATOM      5  C   UNL     1     -10.728  13.771 -25.832  0.00  0.00    +0.000 A 
ATOM      6  C   UNL     1     -10.935  14.654 -24.780  0.00  0.00    +0.000 A 
ENDROOT
BRANCH   1   8
ATOM      7  C   UNL     1      -9.726  17.425 -23.159  0.00  0.00    +0.000 C 
ATOM      8  O   UNL     1     -10.831  16.749 -23.749  0.00  0.00    +0.000 OA
ENDBRANCH   1   8
BRANCH   6   9
ATOM      9  O   UNL     1     -11.519  14.173 -23.638  0.00  0.00    +0.000 OA
ATOM     10  H   UNL     1     -12.145  13.491 -23.948  0.00  0.00    +0.000 HD
ENDBRANCH   6   9
TORSDOF 2
ENDMDL
MODEL 3
REMARK VINA RESULT:    -3.855     17.785     19.452
REMARK INTER + INTRA:          -4.235
REMARK INTER:                  -4.182
REMARK INTRA:                  -0.053
REMARK UNBOUND:                -0.042
REMARK  Name = 
REMARK  3 active torsions:
REMARK  status: ('A' for Active; 'I' for Inactive)
REMARK    1  A    between atoms: C_1  and  O_2
REMARK    2  A    between atoms: O_2  and  C_3
REMARK    3  A    between atoms: C_8  and  O_9
REMARK                            x       y       z     vdW  Elec       q    Type
REMARK                         _______ _______ _______ _____ _____    ______ ____
ROOT
ATOM      1  C   UNL     1     -10.167  14.328 -26.564  0.00  0.00    +0.000 A 
ATOM      2  C   UNL     1      -9.917  15.569 -27.149  0.00  0.00    +0.000 A 
ATOM      3  C   UNL     1     -10.102  16.742 -26.408  0.00  0.00    +0.000 A 
ATOM      4  C   UNL     1     -10.537  16.681 -25.082  0.00  0.00    +0.000 A 
ATOM      5  C   UNL     1     -10.789  15.446 -24.491  0.00  0.00    +0.000 A 
ATOM      6  C   UNL     1     -10.603  14.287 -25.234  0.00  0.00    +0.000 A 
ENDROOT
BRANCH   1   8
ATOM      7  C   UNL     1      -8.709  12.716 -27.524  0.00  0.00    +0.000 C 
ATOM      8  O   UNL     1     -10.031  13.104 -27.168  0.00  0.00    +0.000 OA
ENDBRANCH   1   8
BRANCH   6   9
ATOM      9  O   UNL     1     -10.858  13.084 -24.630  0.00  0.00    +0.000 OA
ATOM     10  H   UNL     1     -11.315  13.315 -23.799  0.00  0.00    +0.000 HD
ENDBRANCH   6   9
TORSDOF 2
ENDMDL
MODEL 4
REMARK VINA RESULT:    -3.807      1.266      3.058
REMARK INTER + INTRA:          -4.183
REMARK INTER:                  -4.142
REMARK INTRA:                  -0.040
REMARK UNBOUND:                -0.042
REMARK  Name = 
REMARK  3 active torsions:
REMARK  status: ('A' for Active; 'I' for Inactive)
REMARK    1  A    between atoms: C_1  and  O_2
REMARK    2  A    between atoms: O_2  and  C_3
REMARK    3  A    between atoms: C_8  and  O_9
REMARK                            x       y       z     vdW  Elec       q    Type
REMARK                         _______ _______ _______ _____ _____    ______ ____
ROOT
ATOM      1  C   UNL     1     -15.386  11.558  -6.983  0.00  0.00    +0.000 A 
ATOM      2  C   UNL     1     -16.224  12.329  -6.179  0.00  0.00    +0.000 A 
ATOM      3  C   UNL     1     -17.039  13.310  -6.757  0.00  0.00    +0.000 A 
ATOM      4  C   UNL     1     -17.020  13.524  -8.137  0.00  0.00    +0.000 A 
ATOM      5  C   UNL     1     -16.186  12.757  -8.946  0.00  0.00    +0.000 A 
ATOM      6  C   UNL     1     -15.380  11.786  -8.364  0.00  0.00    +0.000 A 
ENDROOT
BRANCH   1   8
ATOM      7  C   UNL     1     -13.340  10.991  -5.916  0.00  0.00    +0.000 C 
ATOM      8  O   UNL     1     -14.538  10.568  -6.555  0.00  0.00    +0.000 OA
ENDBRANCH   1   8
BRANCH   6   9
ATOM      9  O   UNL     1     -14.568  11.045  -9.181  0.00  0.00    +0.000 OA
ATOM     10  H   UNL     1     -14.036  10.498  -8.572  0.00  0.00    +0.000 HD
ENDBRANCH   6   9
TORSDOF 2
ENDMDL
MODEL 5
REMARK VINA RESULT:    -3.484     18.187     19.617
REMARK INTER + INTRA:          -3.832
REMARK INTER:                  -3.782
REMARK INTRA:                  -0.050
REMARK UNBOUND:                -0.042
REMARK  Name = 
REMARK  3 active torsions:
REMARK  status: ('A' for Active; 'I' for Inactive)
REMARK    1  A    between atoms: C_1  and  O_2
REMARK    2  A    between atoms: O_2  and  C_3
REMARK    3  A    between atoms: C_8  and  O_9
REMARK                            x       y       z     vdW  Elec       q    Type
REMARK                         _______ _______ _______ _____ _____    ______ ____
ROOT
ATOM      1  C   UNL     1     -10.206  14.075 -26.520  0.00  0.00    +0.000 A 
ATOM      2  C   UNL     1     -10.767  13.694 -25.302  0.00  0.00    +0.000 A 
ATOM      3  C   UNL     1     -11.043  14.661 -24.327  0.00  0.00    +0.000 A 
ATOM      4  C   UNL     1     -10.758  16.007 -24.564  0.00  0.00    +0.000 A 
ATOM      5  C   UNL     1     -10.198  16.395 -25.779  0.00  0.00    +0.000 A 
ATOM      6  C   UNL     1      -9.928  15.429 -26.740  0.00  0.00    +0.000 A 
ENDROOT
BRANCH   1   8
ATOM      7  C   UNL     1      -8.768  12.382 -27.364  0.00  0.00    +0.000 C 
ATOM      8  O   UNL     1      -9.884  13.240 -27.561  0.00  0.00    +0.000 OA
ENDBRANCH   1   8
BRANCH   6   9
ATOM      9  O   UNL     1      -9.377  15.835 -27.926  0.00  0.00    +0.000 OA
ATOM     10  H   UNL     1      -9.989  16.516 -28.265  0.00  0.00    +0.000 HD
ENDBRANCH   6   9
TORSDOF 2
ENDMDL
MODEL 6
REMARK VINA RESULT:    -3.424     17.408     18.857
REMARK INTER + INTRA:          -3.766
REMARK INTER:                  -3.714
REMARK INTRA:                  -0.052
REMARK UNBOUND:                -0.042
REMARK  Name = 
REMARK  3 active torsions:
REMARK  status: ('A' for Active; 'I' for Inactive)
REMARK    1  A    between atoms: C_1  and  O_2
REMARK    2  A    between atoms: O_2  and  C_3
REMARK    3  A    between atoms: C_8  and  O_9
REMARK                            x       y       z     vdW  Elec       q    Type
REMARK                         _______ _______ _______ _____ _____    ______ ____
ROOT
ATOM      1  C   UNL     1     -10.547  16.285 -24.780  0.00  0.00    +0.000 A 
ATOM      2  C   UNL     1     -11.027  15.058 -24.326  0.00  0.00    +0.000 A 
ATOM      3  C   UNL     1     -10.947  13.928 -25.150  0.00  0.00    +0.000 A 
ATOM      4  C   UNL     1     -10.390  14.020 -26.426  0.00  0.00    +0.000 A 
ATOM      5  C   UNL     1      -9.907  15.244 -26.886  0.00  0.00    +0.000 A 
ATOM      6  C   UNL     1      -9.991  16.359 -26.063  0.00  0.00    +0.000 A 
ENDROOT
BRANCH   1   8
ATOM      7  C   UNL     1      -9.712  17.546 -22.946  0.00  0.00    +0.000 C 
ATOM      8  O   UNL     1     -10.561  17.468 -24.085  0.00  0.00    +0.000 OA
ENDBRANCH   1   8
BRANCH   6   9
ATOM      9  O   UNL     1      -9.510  17.550 -26.537  0.00  0.00    +0.000 OA
ATOM     10  H   UNL     1     -10.302  18.111 -26.648  0.00  0.00    +0.000 HD
ENDBRANCH   6   9
TORSDOF 2
ENDMDL
MODEL 7
REMARK VINA RESULT:    -3.404      6.619      7.920
REMARK INTER + INTRA:          -3.744
REMARK INTER:                  -3.698
REMARK INTRA:                  -0.047
REMARK UNBOUND:                -0.042
REMARK  Name = 
REMARK  3 active torsions:
REMARK  status: ('A' for Active; 'I' for Inactive)
REMARK    1  A    between atoms: C_1  and  O_2
REMARK    2  A    between atoms: O_2  and  C_3
REMARK    3  A    between atoms: C_8  and  O_9
REMARK                            x       y       z     vdW  Elec       q    Type
REMARK                         _______ _______ _______ _____ _____    ______ ____
ROOT
ATOM      1  C   UNL     1     -15.334  16.921 -13.495  0.00  0.00    +0.000 A 
ATOM      2  C   UNL     1     -15.625  17.718 -14.602  0.00  0.00    +0.000 A 
ATOM      3  C   UNL     1     -16.191  17.145 -15.748  0.00  0.00    +0.000 A 
ATOM      4  C   UNL     1     -16.467  15.777 -15.792  0.00  0.00    +0.000 A 
ATOM      5  C   UNL     1     -16.179  14.974 -14.691  0.00  0.00    +0.000 A 
ATOM      6  C   UNL     1     -15.618  15.551 -13.559  0.00  0.00    +0.000 A 
ENDROOT
BRANCH   1   8
ATOM      7  C   UNL     1     -13.651  18.203 -12.414  0.00  0.00    +0.000 C 
ATOM      8  O   UNL     1     -14.781  17.345 -12.314  0.00  0.00    +0.000 OA
ENDBRANCH   1   8
BRANCH   6   9
ATOM      9  O   UNL     1     -15.344  14.742 -12.488  0.00  0.00    +0.000 OA
ATOM     10  H   UNL     1     -14.854  15.312 -11.865  0.00  0.00    +0.000 HD
ENDBRANCH   6   9
TORSDOF 2
ENDMDL
MODEL 8
REMARK VINA RESULT:    -3.204      5.842      7.283
REMARK INTER + INTRA:          -3.527
REMARK INTER:                  -3.483
REMARK INTRA:                  -0.044
REMARK UNBOUND:                -0.042
REMARK  Name = 
REMARK  3 active torsions:
REMARK  status: ('A' for Active; 'I' for Inactive)
REMARK    1  A    between atoms: C_1  and  O_2
REMARK    2  A    between atoms: O_2  and  C_3
REMARK    3  A    between atoms: C_8  and  O_9
REMARK                            x       y       z     vdW  Elec       q    Type
REMARK                         _______ _______ _______ _____ _____    ______ ____
ROOT
ATOM      1  C   UNL     1     -15.608  16.109 -13.947  0.00  0.00    +0.000 A 
ATOM      2  C   UNL     1     -15.750  17.451 -14.299  0.00  0.00    +0.000 A 
ATOM      3  C   UNL     1     -15.799  18.434 -13.302  0.00  0.00    +0.000 A 
ATOM      4  C   UNL     1     -15.708  18.080 -11.955  0.00  0.00    +0.000 A 
ATOM      5  C   UNL     1     -15.566  16.742 -11.596  0.00  0.00    +0.000 A 
ATOM      6  C   UNL     1     -15.519  15.774 -12.591  0.00  0.00    +0.000 A 
ENDROOT
BRANCH   1   8
ATOM      7  C   UNL     1     -14.820  15.250 -16.018  0.00  0.00    +0.000 C 
ATOM      8  O   UNL     1     -15.547  15.046 -14.812  0.00  0.00    +0.000 OA
ENDBRANCH   1   8
BRANCH   6   9
ATOM      9  O   UNL     1     -15.379  14.465 -12.213  0.00  0.00    +0.000 OA
ATOM     10  H   UNL     1     -16.108  14.309 -11.582  0.00  0.00    +0.000 HD
ENDBRANCH   6   9
TORSDOF 2
ENDMDL
