MODEL 1
REMARK VINA RESULT:    -4.293      0.000      0.000
REMARK INTER + INTRA:          -4.711
REMARK INTER:                  -4.670
REMARK INTRA:                  -0.042
REMARK UNBOUND:                -0.042
REMARK  Name = 
REMARK  3 active torsions:
REMARK  status: ('A' for Active; 'I' for Inactive)
REMARK    1  A    between atoms: C_1  and  O_2
REMARK    2  A    between atoms: O_2  and  C_3
REMARK    3  A    between atoms: C_8  and  O_9
REMARK                            x       y       z     vdW  Elec       q    Type
REMARK                         _______ _______ _______ _____ _____    ______ ____
ROOT
ATOM      1  C   UNL     1     -16.266  12.754  -8.243  0.00  0.00    +0.000 A 
ATOM      2  C   UNL     1     -17.038  13.107  -7.136  0.00  0.00    +0.000 A 
ATOM      3  C   UNL     1     -16.860  12.439  -5.918  0.00  0.00    +0.000 A 
ATOM      4  C   UNL     1     -15.914  11.418  -5.802  0.00  0.00    +0.000 A 
ATOM      5  C   UNL     1     -15.139  11.061  -6.903  0.00  0.00    +0.000 A 
ATOM      6  C   UNL     1     -15.322  11.729  -8.107  0.00  0.00    +0.000 A 
ENDROOT
BRANCH   1   8
ATOM      7  C   UNL     1     -16.681  14.698  -9.546  0.00  0.00    +0.000 C 
ATOM      8  O   UNL     1     -16.333  13.319  -9.491  0.00  0.00    +0.000 OA
ENDBRANCH   1   8
BRANCH   6   9
ATOM      9  O   UNL     1     -14.549  11.360  -9.175  0.00  0.00    +0.000 OA
ATOM     10  H   UNL     1     -15.148  10.844  -9.749  0.00  0.00    +0.000 HD
ENDBRANCH   6   9
TORSDOF 2
ENDMDL
MODEL 2
REMARK VINA RESULT:    -3.879     17.351     18.705
REMARK INTER + INTRA:          -4.261
REMARK INTER:                  -4.212
REMARK INTRA:                  -0.049
REMARK UNBOUND:                -0.042
REMARK  Name = 
REMARK  3 active torsions:
REMARK  status: ('A' for Active; 'I' for Inactive)
REMARK    1  A    between atoms: C_1  and  O_2
REMARK    2  A    between atoms: O_2  and  C_3
REMARK    3  A    between atoms: C_8  and  O_9
REMARK                            x       y       z     vdW  Elec       q    Type
REMARK                         _______ _______ _______ _____ _____    ______ ____
ROOT
ATOM      1  C   UNL     1     -10.537  15.994 -24.883  0.00  0.00    +0.000 A 
ATOM      2  C   UNL     1      -9.951  16.436 -26.068  0.00  0.00    +0.000 A 
ATOM      3  C   UNL     1      -9.761  15.543 -27.130  0.00  0.00    +0.000 A 
ATOM      4  C   UNL     1     -10.153  14.209 -27.012  0.00  0.00    +0.000 A 
ATOM      5  C   UNL     1     -10.739  13.760 -25.831  0.00  0.00    +0.000 A 
ATOM      6  C   UNL     1     -10.924  14.652 -24.783  0.00  0.00    +0.000 A 
ENDROOT
BRANCH   1   8
ATOM      7  C   UNL     1      -9.684  17.496 -23.251  0.00  0.00    +0.000 C 
ATOM      8  O   UNL     1     -10.782  16.754 -23.767  0.00  0.00    +0.000 OA
ENDBRANCH   1   8
BRANCH   6   9
ATOM      9  O   UNL     1     -11.502  14.187 -23.632  0.00  0.00    +0.000 OA
ATOM     10  H   UNL     1     -11.007  14.622 -22.911  0.00  0.00    +0.000 HD
ENDBRANCH   6   9
TORSDOF 2
ENDMDL
MODEL 3
REMARK VINA RESULT:    -3.839     17.817     19.485
REMARK INTER + INTRA:          -4.218
REMARK INTER:                  -4.165
REMARK INTRA:                  -0.053
REMARK UNBOUND:                -0.042
REMARK  Name = 
REMARK  3 active torsions:
REMARK  status: ('A' for Active; 'I' for Inactive)
REMARK    1  A    between atoms: C_1  and  O_2
REMARK    2  A    between atoms: O_2  and  C_3
REMARK    3  A    between atoms: C_8  and  O_9
REMARK                            x       y       z     vdW  Elec       q    Type
REMARK                         _______ _______ _______ _____ _____    ______ ____
ROOT
ATOM      1  C   UNL     1     -10.271  14.436 -26.603  0.00  0.00    +0.000 A 
ATOM      2  C   UNL     1      -9.972  15.678 -27.161  0.00  0.00    +0.000 A 
ATOM      3  C   UNL     1     -10.064  16.837 -26.379  0.00  0.00    +0.000 A 
ATOM      4  C   UNL     1     -10.456  16.759 -25.041  0.00  0.00    +0.000 A 
ATOM      5  C   UNL     1     -10.756  15.521 -24.477  0.00  0.00    +0.000 A 
ATOM      6  C   UNL     1     -10.662  14.377 -25.259  0.00  0.00    +0.000 A 
ENDROOT
BRANCH   1   8
ATOM      7  C   UNL     1      -8.937  12.763 -27.637  0.00  0.00    +0.000 C 
ATOM      8  O   UNL     1     -10.224  13.225 -27.246  0.00  0.00    +0.000 OA
ENDBRANCH   1   8
BRANCH   6   9
ATOM      9  O   UNL     1     -10.962  13.173 -24.682  0.00  0.00    +0.000 OA
ATOM     10  H   UNL     1     -11.870  13.280 -24.340  0.00  0.00    +0.000 HD
ENDBRANCH   6   9
TORSDOF 2
ENDMDL
MODEL 4
REMARK VINA RESULT:    -3.830      1.269      3.074
REMARK INTER + INTRA:          -4.208
REMARK INTER:                  -4.173
REMARK INTRA:                  -0.035
REMARK UNBOUND:                -0.042
REMARK  Name = 
REMARK  3 active torsions:
REMARK  status: ('A' for Active; 'I' for Inactive)
REMARK    1  A    between atoms: C_1  and  O_2
REMARK    2  A    between atoms: O_2  and  C_3
REMARK    3  A    between atoms: C_8  and  O_9
REMARK                            x       y       z     vdW  Elec       q    Type
REMARK                         _______ _______ _______ _____ _____    ______ ____
ROOT
ATOM      1  C   UNL     1     -15.518  11.590  -6.763  0.00  0.00    +0.000 A 
ATOM      2  C   UNL     1     -16.281  12.263  -5.809  0.00  0.00    +0.000 A 
ATOM      3  C   UNL     1     -17.038  13.381  -6.181  0.00  0.00    +0.000 A 
ATOM      4  C   UNL     1     -17.036  13.830  -7.503  0.00  0.00    +0.000 A 
ATOM      5  C   UNL     1     -16.276  13.163  -8.461  0.00  0.00    +0.000 A 
ATOM      6  C   UNL     1     -15.528  12.055  -8.084  0.00  0.00    +0.000 A 
ENDROOT
BRANCH   1   8
ATOM      7  C   UNL     1     -13.476  10.719  -5.915  0.00  0.00    +0.000 C 
ATOM      8  O   UNL     1     -14.732  10.488  -6.542  0.00  0.00    +0.000 OA
ENDBRANCH   1   8
BRANCH   6   9
ATOM      9  O   UNL     1     -14.789  11.416  -9.044  0.00  0.00    +0.000 OA
ATOM     10  H   UNL     1     -15.449  10.974  -9.612  0.00  0.00    +0.000 HD
ENDBRANCH   6   9
TORSDOF 2
ENDMDL
MODEL 5
REMARK VINA RESULT:    -3.564      1.166      1.563
REMARK INTER + INTRA:          -3.918
REMARK INTER:                  -3.866
REMARK INTRA:                  -0.052
REMARK UNBOUND:                -0.042
REMARK  Name = 
REMARK  3 active torsions:
REMARK  status: ('A' for Active; 'I' for Inactive)
REMARK    1  A    between atoms: C_1  and  O_2
REMARK    2  A    between atoms: O_2  and  C_3
REMARK    3  A    between atoms: C_8  and  O_9
REMARK                            x       y       z     vdW  Elec       q    Type
REMARK                         _______ _______ _______ _____ _____    ______ ____
ROOT
ATOM      1  C   UNL     1     -16.490  13.458  -7.624  0.00  0.00    +0.000 A 
ATOM      2  C   UNL     1     -16.461  13.080  -6.282  0.00  0.00    +0.000 A 
ATOM      3  C   UNL     1     -15.863  11.870  -5.909  0.00  0.00    +0.000 A 
ATOM      4  C   UNL     1     -15.294  11.035  -6.872  0.00  0.00    +0.000 A 
ATOM      5  C   UNL     1     -15.319  11.406  -8.215  0.00  0.00    +0.000 A 
ATOM      6  C   UNL     1     -15.914  12.608  -8.576  0.00  0.00    +0.000 A 
ENDROOT
BRANCH   1   8
ATOM      7  C   UNL     1     -16.478  15.834  -7.676  0.00  0.00    +0.000 C 
ATOM      8  O   UNL     1     -17.039  14.609  -8.131  0.00  0.00    +0.000 OA
ENDBRANCH   1   8
BRANCH   6   9
ATOM      9  O   UNL     1     -15.927  12.951  -9.902  0.00  0.00    +0.000 OA
ATOM     10  H   UNL     1     -16.377  12.208 -10.346  0.00  0.00    +0.000 HD
ENDBRANCH   6   9
TORSDOF 2
ENDMDL
MODEL 6
REMARK VINA RESULT:    -3.483     18.248     19.668
REMARK INTER + INTRA:          -3.830
REMARK INTER:                  -3.778
REMARK INTRA:                  -0.052
REMARK UNBOUND:                -0.042
REMARK  Name = 
REMARK  3 active torsions:
REMARK  status: ('A' for Active; 'I' for Inactive)
REMARK    1  A    between atoms: C_1  and  O_2
REMARK    2  A    between atoms: O_2  and  C_3
REMARK    3  A    between atoms: C_8  and  O_9
REMARK                            x       y       z     vdW  Elec       q    Type
REMARK                         _______ _______ _______ _____ _____    ______ ____
ROOT
ATOM      1  C   UNL     1     -10.193  14.090 -26.567  0.00  0.00    +0.000 A 
ATOM      2  C   UNL     1     -10.762  13.681 -25.362  0.00  0.00    +0.000 A 
ATOM      3  C   UNL     1     -11.046  14.624 -24.366  0.00  0.00    +0.000 A 
ATOM      4  C   UNL     1     -10.763  15.976 -24.570  0.00  0.00    +0.000 A 
ATOM      5  C   UNL     1     -10.195  16.393 -25.772  0.00  0.00    +0.000 A 
ATOM      6  C   UNL     1      -9.916  15.450 -26.754  0.00  0.00    +0.000 A 
ENDROOT
BRANCH   1   8
ATOM      7  C   UNL     1      -8.782  12.379 -27.420  0.00  0.00    +0.000 C 
ATOM      8  O   UNL     1      -9.863  13.281 -27.625  0.00  0.00    +0.000 OA
ENDBRANCH   1   8
BRANCH   6   9
ATOM      9  O   UNL     1      -9.358  15.884 -27.927  0.00  0.00    +0.000 OA
ATOM     10  H   UNL     1      -9.685  16.798 -28.034  0.00  0.00    +0.000 HD
ENDBRANCH   6   9
TORSDOF 2
ENDMDL
MODEL 7
REMARK VINA RESULT:    -3.398      6.644      7.941
REMARK INTER + INTRA:          -3.738
REMARK INTER:                  -3.691
REMARK INTRA:                  -0.047
REMARK UNBOUND:                -0.042
REMARK  Name = 
REMARK  3 active torsions:
REMARK  status: ('A' for Active; 'I' for Inactive)
REMARK    1  A    between atoms: C_1  and  O_2
REMARK    2  A    between atoms: O_2  and  C_3
REMARK    3  A    between atoms: C_8  and  O_9
REMARK                            x       y       z     vdW  Elec       q    Type
REMARK                         _______ _______ _______ _____ _____    ______ ____
ROOT
ATOM      1  C   UNL     1     -15.293  16.955 -13.487  0.00  0.00    +0.000 A 
ATOM      2  C   UNL     1     -15.554  17.760 -14.596  0.00  0.00    +0.000 A 
ATOM      3  C   UNL     1     -16.103  17.198 -15.755  0.00  0.00    +0.000 A 
ATOM      4  C   UNL     1     -16.392  15.833 -15.811  0.00  0.00    +0.000 A 
ATOM      5  C   UNL     1     -16.135  15.022 -14.708  0.00  0.00    +0.000 A 
ATOM      6  C   UNL     1     -15.590  15.589 -13.562  0.00  0.00    +0.000 A 
ENDROOT
BRANCH   1   8
ATOM      7  C   UNL     1     -13.613  18.207 -12.366  0.00  0.00    +0.000 C 
ATOM      8  O   UNL     1     -14.760  17.368 -12.293  0.00  0.00    +0.000 OA
ENDBRANCH   1   8
BRANCH   6   9
ATOM      9  O   UNL     1     -15.346  14.772 -12.491  0.00  0.00    +0.000 OA
ATOM     10  H   UNL     1     -15.709  13.904 -12.752  0.00  0.00    +0.000 HD
ENDBRANCH   6   9
TORSDOF 2
ENDMDL
MODEL 8
REMARK VINA RESULT:    -3.391     17.462     19.004
REMARK INTER + INTRA:          -3.730
REMARK INTER:                  -3.678
REMARK INTRA:                  -0.052
REMARK UNBOUND:                -0.042
REMARK  Name = 
REMARK  3 active torsions:
REMARK  status: ('A' for Active; 'I' for Inactive)
REMARK    1  A    between atoms: C_1  and  O_2
REMARK    2  A    between atoms: O_2  and  C_3
REMARK    3  A    between atoms: C_8  and  O_9
REMARK                            x       y       z     vdW  Elec       q    Type
REMARK                         _______ _______ _______ _____ _____    ______ ____
ROOT
ATOM      1  C   UNL     1     -10.582  16.154 -24.970  0.00  0.00    +0.000 A 
ATOM      2  C   UNL     1     -11.030  14.916 -24.510  0.00  0.00    +0.000 A 
ATOM      3  C   UNL     1     -10.915  13.783 -25.325  0.00  0.00    +0.000 A 
ATOM      4  C   UNL     1     -10.356  13.883 -26.601  0.00  0.00    +0.000 A 
ATOM      5  C   UNL     1      -9.907  15.116 -27.068  0.00  0.00    +0.000 A 
ATOM      6  C   UNL     1     -10.025  16.234 -26.252  0.00  0.00    +0.000 A 
ENDROOT
BRANCH   1   8
ATOM      7  C   UNL     1      -9.878  17.408 -23.078  0.00  0.00    +0.000 C 
ATOM      8  O   UNL     1     -10.632  17.340 -24.283  0.00  0.00    +0.000 OA
ENDBRANCH   1   8
BRANCH   6   9
ATOM      9  O   UNL     1      -9.576  17.436 -26.732  0.00  0.00    +0.000 OA
ATOM     10  H   UNL     1     -10.328  18.046 -26.616  0.00  0.00    +0.000 HD
ENDBRANCH   6   9
TORSDOF 2
ENDMDL
