MODEL 1
REMARK VINA RESULT:    -4.159      0.000      0.000
REMARK INTER + INTRA:          -6.308
REMARK INTER:                  -5.618
REMARK INTRA:                  -0.690
REMARK UNBOUND:                -0.690
REMARK  Name = 
REMARK  10 active torsions:
REMARK  status: ('A' for Active; 'I' for Inactive)
REMARK    1  A    between atoms: C_1  and  C_2
REMARK    2  A    between atoms: C_5  and  N_8
REMARK    3  A    between atoms: N_8  and  C_9
REMARK    4  A    between atoms: N_8  and  C_13
REMARK    5  A    between atoms: C_9  and  C_10
REMARK    6  A    between atoms: C_10  and  C_11
REMARK    7  A    between atoms: C_10  and  O_12
REMARK    8  A    between atoms: C_13  and  C_14
REMARK    9  A    between atoms: C_14  and  C_15
REMARK   10  A    between atoms: C_14  and  O_16
REMARK                            x       y       z     vdW  Elec       q    Type
REMARK                         _______ _______ _______ _____ _____    ______ ____
ROOT
ATOM      1  N   UNL     1     -15.982  16.242  -9.873  0.00  0.00    +0.000 N 
ENDROOT
BRANCH   1   6
ATOM      2  C   UNL     1     -15.759  11.735  -6.273  0.00  0.00    +0.000 C 
ATOM      3  C   UNL     1     -15.837  12.913  -7.195  0.00  0.00    +0.000 A 
ATOM      4  C   UNL     1     -16.552  12.842  -8.385  0.00  0.00    +0.000 A 
ATOM      5  C   UNL     1     -16.597  13.940  -9.260  0.00  0.00    +0.000 A 
ATOM      6  C   UNL     1     -15.917  15.145  -9.006  0.00  0.00    +0.000 A 
ATOM      7  C   UNL     1     -15.206  15.181  -7.792  0.00  0.00    +0.000 A 
ATOM      8  C   UNL     1     -15.155  14.092  -6.907  0.00  0.00    +0.000 A 
ENDBRANCH   1   6
BRANCH   1   9
ATOM      9  C   UNL     1     -15.450  17.559  -9.447  0.00  0.00    +0.000 C 
BRANCH   9  10
ATOM     10  C   UNL     1     -14.018  17.827  -9.972  0.00  0.00    +0.000 C 
ATOM     11  C   UNL     1     -13.056  18.091  -8.820  0.00  0.00    +0.000 C 
BRANCH  10  12
ATOM     12  O   UNL     1     -13.525  16.704 -10.716  0.00  0.00    +0.000 OA
ATOM     13  H   UNL     1     -13.227  17.025 -11.583  0.00  0.00    +0.000 HD
ENDBRANCH  10  12
ENDBRANCH   9  10
ENDBRANCH   1   9
BRANCH   1  14
ATOM     14  C   UNL     1     -16.983  16.298 -10.969  0.00  0.00    +0.000 C 
BRANCH  14  15
ATOM     15  C   UNL     1     -16.360  15.974 -12.348  0.00  0.00    +0.000 C 
ATOM     16  C   UNL     1     -15.971  17.218 -13.138  0.00  0.00    +0.000 C 
BRANCH  15  17
ATOM     17  O   UNL     1     -15.201  15.151 -12.222  0.00  0.00    +0.000 OA
ATOM     18  H   UNL     1     -14.622  15.413 -12.966  0.00  0.00    +0.000 HD
ENDBRANCH  15  17
ENDBRANCH  14  15
ENDBRANCH   1  14
TORSDOF 7
ENDMDL
MODEL 2
REMARK VINA RESULT:    -4.000     20.569     22.572
REMARK INTER + INTRA:          -6.094
REMARK INTER:                  -5.676
REMARK INTRA:                  -0.418
REMARK UNBOUND:                -0.690
REMARK  Name = 
REMARK  10 active torsions:
REMARK  status: ('A' for Active; 'I' for Inactive)
REMARK    1  A    between atoms: C_1  and  C_2
REMARK    2  A    between atoms: C_5  and  N_8
REMARK    3  A    between atoms: N_8  and  C_9
REMARK    4  A    between atoms: N_8  and  C_13
REMARK    5  A    between atoms: C_9  and  C_10
REMARK    6  A    between atoms: C_10  and  C_11
REMARK    7  A    between atoms: C_10  and  O_12
REMARK    8  A    between atoms: C_13  and  C_14
REMARK    9  A    between atoms: C_14  and  C_15
REMARK   10  A    between atoms: C_14  and  O_16
REMARK                            x       y       z     vdW  Elec       q    Type
REMARK                         _______ _______ _______ _____ _____    ______ ____
ROOT
ATOM      1  N   UNL     1      -2.318  13.722 -27.140  0.00  0.00    +0.000 N 
ENDROOT
BRANCH   1   6
ATOM      2  C   UNL     1       2.192  10.139 -27.526  0.00  0.00    +0.000 C 
ATOM      3  C   UNL     1       1.025  11.075 -27.450  0.00  0.00    +0.000 A 
ATOM      4  C   UNL     1       1.193  12.395 -27.045  0.00  0.00    +0.000 A 
ATOM      5  C   UNL     1       0.091  13.259 -26.947  0.00  0.00    +0.000 A 
ATOM      6  C   UNL     1      -1.226  12.849 -27.221  0.00  0.00    +0.000 A 
ATOM      7  C   UNL     1      -1.358  11.508 -27.629  0.00  0.00    +0.000 A 
ATOM      8  C   UNL     1      -0.264  10.634 -27.734  0.00  0.00    +0.000 A 
ENDBRANCH   1   6
BRANCH   1   9
ATOM      9  C   UNL     1      -2.277  14.878 -26.213  0.00  0.00    +0.000 C 
BRANCH   9  10
ATOM     10  C   UNL     1      -2.416  16.237 -26.942  0.00  0.00    +0.000 C 
ATOM     11  C   UNL     1      -3.193  17.235 -26.092  0.00  0.00    +0.000 C 
BRANCH  10  12
ATOM     12  O   UNL     1      -1.129  16.802 -27.227  0.00  0.00    +0.000 OA
ATOM     13  H   UNL     1      -0.976  16.736 -28.184  0.00  0.00    +0.000 HD
ENDBRANCH  10  12
ENDBRANCH   9  10
ENDBRANCH   1   9
BRANCH   1  14
ATOM     14  C   UNL     1      -3.682  13.286 -27.535  0.00  0.00    +0.000 C 
BRANCH  14  15
ATOM     15  C   UNL     1      -4.655  13.249 -26.332  0.00  0.00    +0.000 C 
ATOM     16  C   UNL     1      -6.063  12.808 -26.713  0.00  0.00    +0.000 C 
BRANCH  15  17
ATOM     17  O   UNL     1      -4.185  12.384 -25.300  0.00  0.00    +0.000 OA
ATOM     18  H   UNL     1      -3.900  12.981 -24.579  0.00  0.00    +0.000 HD
ENDBRANCH  15  17
ENDBRANCH  14  15
ENDBRANCH   1  14
TORSDOF 7
ENDMDL
MODEL 3
REMARK VINA RESULT:    -3.845     19.728     21.112
REMARK INTER + INTRA:          -5.884
REMARK INTER:                  -5.219
REMARK INTRA:                  -0.665
REMARK UNBOUND:                -0.690
REMARK  Name = 
REMARK  10 active torsions:
REMARK  status: ('A' for Active; 'I' for Inactive)
REMARK    1  A    between atoms: C_1  and  C_2
REMARK    2  A    between atoms: C_5  and  N_8
REMARK    3  A    between atoms: N_8  and  C_9
REMARK    4  A    between atoms: N_8  and  C_13
REMARK    5  A    between atoms: C_9  and  C_10
REMARK    6  A    between atoms: C_10  and  C_11
REMARK    7  A    between atoms: C_10  and  O_12
REMARK    8  A    between atoms: C_13  and  C_14
REMARK    9  A    between atoms: C_14  and  C_15
REMARK   10  A    between atoms: C_14  and  O_16
REMARK                            x       y       z     vdW  Elec       q    Type
REMARK                         _______ _______ _______ _____ _____    ______ ____
ROOT
ATOM      1  N   UNL     1      -3.940  13.427 -26.847  0.00  0.00    +0.000 N 
ENDROOT
BRANCH   1   6
ATOM      2  C   UNL     1      -9.616  12.586 -27.482  0.00  0.00    +0.000 C 
ATOM      3  C   UNL     1      -8.148  12.818 -27.297  0.00  0.00    +0.000 A 
ATOM      4  C   UNL     1      -7.507  13.880 -27.927  0.00  0.00    +0.000 A 
ATOM      5  C   UNL     1      -6.125  14.075 -27.774  0.00  0.00    +0.000 A 
ATOM      6  C   UNL     1      -5.315  13.215 -27.011  0.00  0.00    +0.000 A 
ATOM      7  C   UNL     1      -5.996  12.154 -26.387  0.00  0.00    +0.000 A 
ATOM      8  C   UNL     1      -7.378  11.949 -26.530  0.00  0.00    +0.000 A 
ENDBRANCH   1   6
BRANCH   1   9
ATOM      9  C   UNL     1      -3.456  14.555 -26.015  0.00  0.00    +0.000 C 
BRANCH   9  10
ATOM     10  C   UNL     1      -2.955  15.752 -26.861  0.00  0.00    +0.000 C 
ATOM     11  C   UNL     1      -3.757  17.011 -26.553  0.00  0.00    +0.000 C 
BRANCH  10  12
ATOM     12  O   UNL     1      -1.573  16.029 -26.593  0.00  0.00    +0.000 OA
ATOM     13  H   UNL     1      -1.520  16.508 -25.749  0.00  0.00    +0.000 HD
ENDBRANCH  10  12
ENDBRANCH   9  10
ENDBRANCH   1   9
BRANCH   1  14
ATOM     14  C   UNL     1      -2.960  12.917 -27.839  0.00  0.00    +0.000 C 
BRANCH  14  15
ATOM     15  C   UNL     1      -1.657  12.415 -27.170  0.00  0.00    +0.000 C 
ATOM     16  C   UNL     1      -1.263  11.009 -27.605  0.00  0.00    +0.000 C 
BRANCH  15  17
ATOM     17  O   UNL     1      -0.558  13.285 -27.437  0.00  0.00    +0.000 OA
ATOM     18  H   UNL     1       0.209  12.865 -26.999  0.00  0.00    +0.000 HD
ENDBRANCH  15  17
ENDBRANCH  14  15
ENDBRANCH   1  14
TORSDOF 7
ENDMDL
MODEL 4
REMARK VINA RESULT:    -3.839     20.424     22.562
REMARK INTER + INTRA:          -5.877
REMARK INTER:                  -5.319
REMARK INTRA:                  -0.558
REMARK UNBOUND:                -0.690
REMARK  Name = 
REMARK  10 active torsions:
REMARK  status: ('A' for Active; 'I' for Inactive)
REMARK    1  A    between atoms: C_1  and  C_2
REMARK    2  A    between atoms: C_5  and  N_8
REMARK    3  A    between atoms: N_8  and  C_9
REMARK    4  A    between atoms: N_8  and  C_13
REMARK    5  A    between atoms: C_9  and  C_10
REMARK    6  A    between atoms: C_10  and  C_11
REMARK    7  A    between atoms: C_10  and  O_12
REMARK    8  A    between atoms: C_13  and  C_14
REMARK    9  A    between atoms: C_14  and  C_15
REMARK   10  A    between atoms: C_14  and  O_16
REMARK                            x       y       z     vdW  Elec       q    Type
REMARK                         _______ _______ _______ _____ _____    ______ ____
ROOT
ATOM      1  N   UNL     1      -2.454  13.745 -27.392  0.00  0.00    +0.000 N 
ENDROOT
BRANCH   1   6
ATOM      2  C   UNL     1       2.097  10.193 -27.381  0.00  0.00    +0.000 C 
ATOM      3  C   UNL     1       0.921  11.120 -27.408  0.00  0.00    +0.000 A 
ATOM      4  C   UNL     1       1.052  12.452 -27.029  0.00  0.00    +0.000 A 
ATOM      5  C   UNL     1      -0.060  13.310 -27.027  0.00  0.00    +0.000 A 
ATOM      6  C   UNL     1      -1.353  12.880 -27.377  0.00  0.00    +0.000 A 
ATOM      7  C   UNL     1      -1.448  11.528 -27.756  0.00  0.00    +0.000 A 
ATOM      8  C   UNL     1      -0.344  10.661 -27.765  0.00  0.00    +0.000 A 
ENDBRANCH   1   6
BRANCH   1   9
ATOM      9  C   UNL     1      -3.813  13.214 -27.654  0.00  0.00    +0.000 C 
BRANCH   9  10
ATOM     10  C   UNL     1      -4.718  13.233 -26.398  0.00  0.00    +0.000 C 
ATOM     11  C   UNL     1      -6.055  12.558 -26.678  0.00  0.00    +0.000 C 
BRANCH  10  12
ATOM     12  O   UNL     1      -4.094  12.545 -25.304  0.00  0.00    +0.000 OA
ATOM     13  H   UNL     1      -3.226  12.953 -25.147  0.00  0.00    +0.000 HD
ENDBRANCH  10  12
ENDBRANCH   9  10
ENDBRANCH   1   9
BRANCH   1  14
ATOM     14  C   UNL     1      -2.288  15.197 -27.661  0.00  0.00    +0.000 C 
BRANCH  14  15
ATOM     15  C   UNL     1      -2.506  16.055 -26.392  0.00  0.00    +0.000 C 
ATOM     16  C   UNL     1      -3.789  16.878 -26.439  0.00  0.00    +0.000 C 
BRANCH  15  17
ATOM     17  O   UNL     1      -2.538  15.254 -25.212  0.00  0.00    +0.000 OA
ATOM     18  H   UNL     1      -2.614  14.333 -25.534  0.00  0.00    +0.000 HD
ENDBRANCH  15  17
ENDBRANCH  14  15
ENDBRANCH   1  14
TORSDOF 7
ENDMDL
MODEL 5
REMARK VINA RESULT:    -3.516     19.946     22.068
REMARK INTER + INTRA:          -5.440
REMARK INTER:                  -4.767
REMARK INTRA:                  -0.673
REMARK UNBOUND:                -0.690
REMARK  Name = 
REMARK  10 active torsions:
REMARK  status: ('A' for Active; 'I' for Inactive)
REMARK    1  A    between atoms: C_1  and  C_2
REMARK    2  A    between atoms: C_5  and  N_8
REMARK    3  A    between atoms: N_8  and  C_9
REMARK    4  A    between atoms: N_8  and  C_13
REMARK    5  A    between atoms: C_9  and  C_10
REMARK    6  A    between atoms: C_10  and  C_11
REMARK    7  A    between atoms: C_10  and  O_12
REMARK    8  A    between atoms: C_13  and  C_14
REMARK    9  A    between atoms: C_14  and  C_15
REMARK   10  A    between atoms: C_14  and  O_16
REMARK                            x       y       z     vdW  Elec       q    Type
REMARK                         _______ _______ _______ _____ _____    ______ ____
ROOT
ATOM      1  N   UNL     1      -3.384  13.713 -27.293  0.00  0.00    +0.000 N 
ENDROOT
BRANCH   1   6
ATOM      2  C   UNL     1       1.655  10.895 -27.246  0.00  0.00    +0.000 C 
ATOM      3  C   UNL     1       0.350  11.631 -27.283  0.00  0.00    +0.000 A 
ATOM      4  C   UNL     1       0.289  12.991 -26.999  0.00  0.00    +0.000 A 
ATOM      5  C   UNL     1      -0.940  13.669 -27.006  0.00  0.00    +0.000 A 
ATOM      6  C   UNL     1      -2.163  13.026 -27.270  0.00  0.00    +0.000 A 
ATOM      7  C   UNL     1      -2.063  11.652 -27.554  0.00  0.00    +0.000 A 
ATOM      8  C   UNL     1      -0.840  10.962 -27.553  0.00  0.00    +0.000 A 
ENDBRANCH   1   6
BRANCH   1   9
ATOM      9  C   UNL     1      -3.457  15.079 -27.865  0.00  0.00    +0.000 C 
BRANCH   9  10
ATOM     10  C   UNL     1      -3.783  16.157 -26.803  0.00  0.00    +0.000 C 
ATOM     11  C   UNL     1      -2.775  17.300 -26.859  0.00  0.00    +0.000 C 
BRANCH  10  12
ATOM     12  O   UNL     1      -5.090  16.708 -27.013  0.00  0.00    +0.000 OA
ATOM     13  H   UNL     1      -5.649  16.451 -26.260  0.00  0.00    +0.000 HD
ENDBRANCH  10  12
ENDBRANCH   9  10
ENDBRANCH   1   9
BRANCH   1  14
ATOM     14  C   UNL     1      -4.475  13.374 -26.345  0.00  0.00    +0.000 C 
BRANCH  14  15
ATOM     15  C   UNL     1      -5.790  13.006 -27.074  0.00  0.00    +0.000 C 
ATOM     16  C   UNL     1      -6.605  11.945 -26.343  0.00  0.00    +0.000 C 
BRANCH  15  17
ATOM     17  O   UNL     1      -6.623  14.148 -27.267  0.00  0.00    +0.000 OA
ATOM     18  H   UNL     1      -6.559  14.349 -28.223  0.00  0.00    +0.000 HD
ENDBRANCH  15  17
ENDBRANCH  14  15
ENDBRANCH   1  14
TORSDOF 7
ENDMDL
MODEL 6
REMARK VINA RESULT:    -3.484     21.353     23.351
REMARK INTER + INTRA:          -5.397
REMARK INTER:                  -5.020
REMARK INTRA:                  -0.377
REMARK UNBOUND:                -0.690
REMARK  Name = 
REMARK  10 active torsions:
REMARK  status: ('A' for Active; 'I' for Inactive)
REMARK    1  A    between atoms: C_1  and  C_2
REMARK    2  A    between atoms: C_5  and  N_8
REMARK    3  A    between atoms: N_8  and  C_9
REMARK    4  A    between atoms: N_8  and  C_13
REMARK    5  A    between atoms: C_9  and  C_10
REMARK    6  A    between atoms: C_10  and  C_11
REMARK    7  A    between atoms: C_10  and  O_12
REMARK    8  A    between atoms: C_13  and  C_14
REMARK    9  A    between atoms: C_14  and  C_15
REMARK   10  A    between atoms: C_14  and  O_16
REMARK                            x       y       z     vdW  Elec       q    Type
REMARK                         _______ _______ _______ _____ _____    ______ ____
ROOT
ATOM      1  N   UNL     1       0.378  13.717 -26.836  0.00  0.00    +0.000 N 
ENDROOT
BRANCH   1   6
ATOM      2  C   UNL     1      -5.364  14.197 -27.193  0.00  0.00    +0.000 C 
ATOM      3  C   UNL     1      -3.877  14.056 -27.081  0.00  0.00    +0.000 A 
ATOM      4  C   UNL     1      -3.134  14.929 -26.293  0.00  0.00    +0.000 A 
ATOM      5  C   UNL     1      -1.737  14.812 -26.216  0.00  0.00    +0.000 A 
ATOM      6  C   UNL     1      -1.014  13.841 -26.933  0.00  0.00    +0.000 A 
ATOM      7  C   UNL     1      -1.797  12.975 -27.717  0.00  0.00    +0.000 A 
ATOM      8  C   UNL     1      -3.195  13.080 -27.802  0.00  0.00    +0.000 A 
ENDBRANCH   1   6
BRANCH   1   9
ATOM      9  C   UNL     1       1.146  14.630 -25.955  0.00  0.00    +0.000 C 
BRANCH   9  10
ATOM     10  C   UNL     1       2.439  13.983 -25.401  0.00  0.00    +0.000 C 
ATOM     11  C   UNL     1       3.481  15.045 -25.071  0.00  0.00    +0.000 C 
BRANCH  10  12
ATOM     12  O   UNL     1       2.170  13.238 -24.206  0.00  0.00    +0.000 OA
ATOM     13  H   UNL     1       2.584  12.364 -24.296  0.00  0.00    +0.000 HD
ENDBRANCH  10  12
ENDBRANCH   9  10
ENDBRANCH   1   9
BRANCH   1  14
ATOM     14  C   UNL     1       1.170  13.081 -27.919  0.00  0.00    +0.000 C 
BRANCH  14  15
ATOM     15  C   UNL     1       1.356  11.562 -27.692  0.00  0.00    +0.000 C 
ATOM     16  C   UNL     1       2.786  11.090 -27.926  0.00  0.00    +0.000 C 
BRANCH  15  17
ATOM     17  O   UNL     1       0.973  11.175 -26.373  0.00  0.00    +0.000 OA
ATOM     18  H   UNL     1       0.133  11.648 -26.205  0.00  0.00    +0.000 HD
ENDBRANCH  15  17
ENDBRANCH  14  15
ENDBRANCH   1  14
TORSDOF 7
ENDMDL
MODEL 7
REMARK VINA RESULT:    -3.440      1.569      5.503
REMARK INTER + INTRA:          -5.336
REMARK INTER:                  -4.937
REMARK INTRA:                  -0.399
REMARK UNBOUND:                -0.690
REMARK  Name = 
REMARK  10 active torsions:
REMARK  status: ('A' for Active; 'I' for Inactive)
REMARK    1  A    between atoms: C_1  and  C_2
REMARK    2  A    between atoms: C_5  and  N_8
REMARK    3  A    between atoms: N_8  and  C_9
REMARK    4  A    between atoms: N_8  and  C_13
REMARK    5  A    between atoms: C_9  and  C_10
REMARK    6  A    between atoms: C_10  and  C_11
REMARK    7  A    between atoms: C_10  and  O_12
REMARK    8  A    between atoms: C_13  and  C_14
REMARK    9  A    between atoms: C_14  and  C_15
REMARK   10  A    between atoms: C_14  and  O_16
REMARK                            x       y       z     vdW  Elec       q    Type
REMARK                         _______ _______ _______ _____ _____    ______ ____
ROOT
ATOM      1  N   UNL     1     -15.919  16.480 -10.515  0.00  0.00    +0.000 N 
ENDROOT
BRANCH   1   6
ATOM      2  C   UNL     1     -15.922  16.377 -16.287  0.00  0.00    +0.000 C 
ATOM      3  C   UNL     1     -15.896  16.405 -14.790  0.00  0.00    +0.000 A 
ATOM      4  C   UNL     1     -15.875  15.225 -14.054  0.00  0.00    +0.000 A 
ATOM      5  C   UNL     1     -15.881  15.257 -12.650  0.00  0.00    +0.000 A 
ATOM      6  C   UNL     1     -15.932  16.455 -11.915  0.00  0.00    +0.000 A 
ATOM      7  C   UNL     1     -15.952  17.628 -12.692  0.00  0.00    +0.000 A 
ATOM      8  C   UNL     1     -15.944  17.611 -14.096  0.00  0.00    +0.000 A 
ENDBRANCH   1   6
BRANCH   1   9
ATOM      9  C   UNL     1     -16.811  15.579  -9.747  0.00  0.00    +0.000 C 
BRANCH   9  10
ATOM     10  C   UNL     1     -16.053  14.397  -9.093  0.00  0.00    +0.000 C 
ATOM     11  C   UNL     1     -16.446  14.241  -7.629  0.00  0.00    +0.000 C 
BRANCH  10  12
ATOM     12  O   UNL     1     -16.344  13.164  -9.765  0.00  0.00    +0.000 OA
ATOM     13  H   UNL     1     -17.106  12.753  -9.324  0.00  0.00    +0.000 HD
ENDBRANCH  10  12
ENDBRANCH   9  10
ENDBRANCH   1   9
BRANCH   1  14
ATOM     14  C   UNL     1     -15.451  17.678  -9.772  0.00  0.00    +0.000 C 
BRANCH  14  15
ATOM     15  C   UNL     1     -13.935  17.621  -9.467  0.00  0.00    +0.000 C 
ATOM     16  C   UNL     1     -13.615  16.942  -8.141  0.00  0.00    +0.000 C 
BRANCH  15  17
ATOM     17  O   UNL     1     -13.215  16.944 -10.496  0.00  0.00    +0.000 OA
ATOM     18  H   UNL     1     -13.032  16.054 -10.132  0.00  0.00    +0.000 HD
ENDBRANCH  15  17
ENDBRANCH  14  15
ENDBRANCH   1  14
TORSDOF 7
ENDMDL
MODEL 8
REMARK VINA RESULT:    -3.370      2.559      5.502
REMARK INTER + INTRA:          -5.242
REMARK INTER:                  -4.592
REMARK INTRA:                  -0.651
REMARK UNBOUND:                -0.690
REMARK  Name = 
REMARK  10 active torsions:
REMARK  status: ('A' for Active; 'I' for Inactive)
REMARK    1  A    between atoms: C_1  and  C_2
REMARK    2  A    between atoms: C_5  and  N_8
REMARK    3  A    between atoms: N_8  and  C_9
REMARK    4  A    between atoms: N_8  and  C_13
REMARK    5  A    between atoms: C_9  and  C_10
REMARK    6  A    between atoms: C_10  and  C_11
REMARK    7  A    between atoms: C_10  and  O_12
REMARK    8  A    between atoms: C_13  and  C_14
REMARK    9  A    between atoms: C_14  and  C_15
REMARK   10  A    between atoms: C_14  and  O_16
REMARK                            x       y       z     vdW  Elec       q    Type
REMARK                         _______ _______ _______ _____ _____    ______ ____
ROOT
ATOM      1  N   UNL     1     -15.046  15.668  -7.183  0.00  0.00    +0.000 N 
ENDROOT
BRANCH   1   6
ATOM      2  C   UNL     1     -15.652  16.898 -12.791  0.00  0.00    +0.000 C 
ATOM      3  C   UNL     1     -15.477  16.561 -11.342  0.00  0.00    +0.000 A 
ATOM      4  C   UNL     1     -16.281  15.606 -10.728  0.00  0.00    +0.000 A 
ATOM      5  C   UNL     1     -16.133  15.317  -9.362  0.00  0.00    +0.000 A 
ATOM      6  C   UNL     1     -15.201  15.976  -8.541  0.00  0.00    +0.000 A 
ATOM      7  C   UNL     1     -14.404  16.933  -9.195  0.00  0.00    +0.000 A 
ATOM      8  C   UNL     1     -14.540  17.231 -10.561  0.00  0.00    +0.000 A 
ENDBRANCH   1   6
BRANCH   1   9
ATOM      9  C   UNL     1     -16.131  14.974  -6.449  0.00  0.00    +0.000 C 
BRANCH   9  10
ATOM     10  C   UNL     1     -15.838  13.471  -6.223  0.00  0.00    +0.000 C 
ATOM     11  C   UNL     1     -17.012  12.612  -6.677  0.00  0.00    +0.000 C 
BRANCH  10  12
ATOM     12  O   UNL     1     -14.676  13.058  -6.956  0.00  0.00    +0.000 OA
ATOM     13  H   UNL     1     -14.342  12.239  -6.554  0.00  0.00    +0.000 HD
ENDBRANCH  10  12
ENDBRANCH   9  10
ENDBRANCH   1   9
BRANCH   1  14
ATOM     14  C   UNL     1     -14.098  16.426  -6.327  0.00  0.00    +0.000 C 
BRANCH  14  15
ATOM     15  C   UNL     1     -12.646  15.909  -6.462  0.00  0.00    +0.000 C 
ATOM     16  C   UNL     1     -11.611  16.871  -5.892  0.00  0.00    +0.000 C 
BRANCH  15  17
ATOM     17  O   UNL     1     -12.474  14.646  -5.820  0.00  0.00    +0.000 OA
ATOM     18  H   UNL     1     -11.557  14.377  -6.031  0.00  0.00    +0.000 HD
ENDBRANCH  15  17
ENDBRANCH  14  15
ENDBRANCH   1  14
TORSDOF 7
ENDMDL
MODEL 9
REMARK VINA RESULT:    -3.292      1.287      2.822
REMARK INTER + INTRA:          -5.137
REMARK INTER:                  -4.889
REMARK INTRA:                  -0.248
REMARK UNBOUND:                -0.690
REMARK  Name = 
REMARK  10 active torsions:
REMARK  status: ('A' for Active; 'I' for Inactive)
REMARK    1  A    between atoms: C_1  and  C_2
REMARK    2  A    between atoms: C_5  and  N_8
REMARK    3  A    between atoms: N_8  and  C_9
REMARK    4  A    between atoms: N_8  and  C_13
REMARK    5  A    between atoms: C_9  and  C_10
REMARK    6  A    between atoms: C_10  and  C_11
REMARK    7  A    between atoms: C_10  and  O_12
REMARK    8  A    between atoms: C_13  and  C_14
REMARK    9  A    between atoms: C_14  and  C_15
REMARK   10  A    between atoms: C_14  and  O_16
REMARK                            x       y       z     vdW  Elec       q    Type
REMARK                         _______ _______ _______ _____ _____    ______ ____
ROOT
ATOM      1  N   UNL     1     -16.227  16.170  -9.101  0.00  0.00    +0.000 N 
ENDROOT
BRANCH   1   6
ATOM      2  C   UNL     1     -15.223  11.081  -6.567  0.00  0.00    +0.000 C 
ATOM      3  C   UNL     1     -15.507  12.402  -7.215  0.00  0.00    +0.000 A 
ATOM      4  C   UNL     1     -16.004  12.469  -8.512  0.00  0.00    +0.000 A 
ATOM      5  C   UNL     1     -16.239  13.710  -9.125  0.00  0.00    +0.000 A 
ATOM      6  C   UNL     1     -15.971  14.936  -8.491  0.00  0.00    +0.000 A 
ATOM      7  C   UNL     1     -15.471  14.830  -7.180  0.00  0.00    +0.000 A 
ATOM      8  C   UNL     1     -15.233  13.596  -6.554  0.00  0.00    +0.000 A 
ENDBRANCH   1   6
BRANCH   1   9
ATOM      9  C   UNL     1     -17.039  16.233 -10.340  0.00  0.00    +0.000 C 
BRANCH   9  10
ATOM     10  C   UNL     1     -16.209  16.637 -11.583  0.00  0.00    +0.000 C 
ATOM     11  C   UNL     1     -15.876  15.418 -12.435  0.00  0.00    +0.000 C 
BRANCH  10  12
ATOM     12  O   UNL     1     -16.928  17.569 -12.402  0.00  0.00    +0.000 OA
ATOM     13  H   UNL     1     -16.706  18.467 -12.103  0.00  0.00    +0.000 HD
ENDBRANCH  10  12
ENDBRANCH   9  10
ENDBRANCH   1   9
BRANCH   1  14
ATOM     14  C   UNL     1     -15.334  17.337  -8.881  0.00  0.00    +0.000 C 
BRANCH  14  15
ATOM     15  C   UNL     1     -13.865  17.029  -9.261  0.00  0.00    +0.000 C 
ATOM     16  C   UNL     1     -13.270  18.046 -10.228  0.00  0.00    +0.000 C 
BRANCH  15  17
ATOM     17  O   UNL     1     -13.024  16.969  -8.110  0.00  0.00    +0.000 OA
ATOM     18  H   UNL     1     -12.473  17.776  -8.157  0.00  0.00    +0.000 HD
ENDBRANCH  15  17
ENDBRANCH  14  15
ENDBRANCH   1  14
TORSDOF 7
ENDMDL
