MODEL 1
REMARK VINA RESULT:    -5.241      0.000      0.000
REMARK INTER + INTRA:          -7.545
REMARK INTER:                  -7.080
REMARK INTRA:                  -0.465
REMARK UNBOUND:                -0.465
REMARK  Name = 
REMARK  10 active torsions:
REMARK  status: ('A' for Active; 'I' for Inactive)
REMARK    1  A    between atoms: C_1  and  C_2
REMARK    2  A    between atoms: C_5  and  N_8
REMARK    3  A    between atoms: N_8  and  C_9
REMARK    4  A    between atoms: N_8  and  C_13
REMARK    5  A    between atoms: C_9  and  C_10
REMARK    6  A    between atoms: C_10  and  C_11
REMARK    7  A    between atoms: C_10  and  O_12
REMARK    8  A    between atoms: C_13  and  C_14
REMARK    9  A    between atoms: C_14  and  C_15
REMARK   10  A    between atoms: C_14  and  O_16
REMARK                            x       y       z     vdW  Elec       q    Type
REMARK                         _______ _______ _______ _____ _____    ______ ____
ROOT
ATOM      1  N   UNL     1      -4.666 -20.314  -8.956  0.00  0.00    +0.000 N 
ENDROOT
BRANCH   1   6
ATOM      2  C   UNL     1      -7.784 -15.820 -10.805  0.00  0.00    +0.000 C 
ATOM      3  C   UNL     1      -6.993 -16.992 -10.308  0.00  0.00    +0.000 A 
ATOM      4  C   UNL     1      -6.060 -16.843  -9.288  0.00  0.00    +0.000 A 
ATOM      5  C   UNL     1      -5.300 -17.938  -8.847  0.00  0.00    +0.000 A 
ATOM      6  C   UNL     1      -5.414 -19.221  -9.413  0.00  0.00    +0.000 A 
ATOM      7  C   UNL     1      -6.368 -19.335 -10.441  0.00  0.00    +0.000 A 
ATOM      8  C   UNL     1      -7.136 -18.248 -10.890  0.00  0.00    +0.000 A 
ENDBRANCH   1   6
BRANCH   1   9
ATOM      9  C   UNL     1      -4.853 -20.816  -7.573  0.00  0.00    +0.000 C 
BRANCH   9  10
ATOM     10  C   UNL     1      -6.343 -20.888  -7.157  0.00  0.00    +0.000 C 
ATOM     11  C   UNL     1      -7.018 -22.116  -7.757  0.00  0.00    +0.000 C 
BRANCH  10  12
ATOM     12  O   UNL     1      -6.477 -20.959  -5.731  0.00  0.00    +0.000 OA
ATOM     13  H   UNL     1      -6.670 -21.881  -5.493  0.00  0.00    +0.000 HD
ENDBRANCH  10  12
ENDBRANCH   9  10
ENDBRANCH   1   9
BRANCH   1  14
ATOM     14  C   UNL     1      -3.366 -20.671  -9.579  0.00  0.00    +0.000 C 
BRANCH  14  15
ATOM     15  C   UNL     1      -2.174 -20.430  -8.622  0.00  0.00    +0.000 C 
ATOM     16  C   UNL     1      -0.861 -21.000  -9.146  0.00  0.00    +0.000 C 
BRANCH  15  17
ATOM     17  O   UNL     1      -1.980 -19.041  -8.361  0.00  0.00    +0.000 OA
ATOM     18  H   UNL     1      -2.482 -18.865  -7.540  0.00  0.00    +0.000 HD
ENDBRANCH  15  17
ENDBRANCH  14  15
ENDBRANCH   1  14
TORSDOF 7
ENDMDL
MODEL 2
REMARK VINA RESULT:    -5.173      0.800      3.746
REMARK INTER + INTRA:          -7.452
REMARK INTER:                  -6.825
REMARK INTRA:                  -0.627
REMARK UNBOUND:                -0.465
REMARK  Name = 
REMARK  10 active torsions:
REMARK  status: ('A' for Active; 'I' for Inactive)
REMARK    1  A    between atoms: C_1  and  C_2
REMARK    2  A    between atoms: C_5  and  N_8
REMARK    3  A    between atoms: N_8  and  C_9
REMARK    4  A    between atoms: N_8  and  C_13
REMARK    5  A    between atoms: C_9  and  C_10
REMARK    6  A    between atoms: C_10  and  C_11
REMARK    7  A    between atoms: C_10  and  O_12
REMARK    8  A    between atoms: C_13  and  C_14
REMARK    9  A    between atoms: C_14  and  C_15
REMARK   10  A    between atoms: C_14  and  O_16
REMARK                            x       y       z     vdW  Elec       q    Type
REMARK                         _______ _______ _______ _____ _____    ______ ____
ROOT
ATOM      1  N   UNL     1      -4.631 -20.278  -8.912  0.00  0.00    +0.000 N 
ENDROOT
BRANCH   1   6
ATOM      2  C   UNL     1      -7.856 -15.845 -10.721  0.00  0.00    +0.000 C 
ATOM      3  C   UNL     1      -7.002 -16.989 -10.269  0.00  0.00    +0.000 A 
ATOM      4  C   UNL     1      -7.174 -18.263 -10.801  0.00  0.00    +0.000 A 
ATOM      5  C   UNL     1      -6.391 -19.338 -10.352  0.00  0.00    +0.000 A 
ATOM      6  C   UNL     1      -5.422 -19.205  -9.341  0.00  0.00    +0.000 A 
ATOM      7  C   UNL     1      -5.274 -17.903  -8.827  0.00  0.00    +0.000 A 
ATOM      8  C   UNL     1      -6.049 -16.818  -9.269  0.00  0.00    +0.000 A 
ENDBRANCH   1   6
BRANCH   1   9
ATOM      9  C   UNL     1      -3.982 -21.167  -9.905  0.00  0.00    +0.000 C 
BRANCH   9  10
ATOM     10  C   UNL     1      -2.597 -20.646 -10.362  0.00  0.00    +0.000 C 
ATOM     11  C   UNL     1      -2.711 -19.876 -11.672  0.00  0.00    +0.000 C 
BRANCH  10  12
ATOM     12  O   UNL     1      -2.026 -19.771  -9.380  0.00  0.00    +0.000 OA
ATOM     13  H   UNL     1      -2.578 -18.972  -9.331  0.00  0.00    +0.000 HD
ENDBRANCH  10  12
ENDBRANCH   9  10
ENDBRANCH   1   9
BRANCH   1  14
ATOM     14  C   UNL     1      -4.811 -20.874  -7.563  0.00  0.00    +0.000 C 
BRANCH  14  15
ATOM     15  C   UNL     1      -6.300 -20.939  -7.147  0.00  0.00    +0.000 C 
ATOM     16  C   UNL     1      -7.038 -22.132  -7.742  0.00  0.00    +0.000 C 
BRANCH  15  17
ATOM     17  O   UNL     1      -6.449 -20.990  -5.729  0.00  0.00    +0.000 OA
ATOM     18  H   UNL     1      -7.144 -20.333  -5.524  0.00  0.00    +0.000 HD
ENDBRANCH  15  17
ENDBRANCH  14  15
ENDBRANCH   1  14
TORSDOF 7
ENDMDL
MODEL 3
REMARK VINA RESULT:    -5.071      0.600      3.523
REMARK INTER + INTRA:          -7.315
REMARK INTER:                  -6.826
REMARK INTRA:                  -0.488
REMARK UNBOUND:                -0.465
REMARK  Name = 
REMARK  10 active torsions:
REMARK  status: ('A' for Active; 'I' for Inactive)
REMARK    1  A    between atoms: C_1  and  C_2
REMARK    2  A    between atoms: C_5  and  N_8
REMARK    3  A    between atoms: N_8  and  C_9
REMARK    4  A    between atoms: N_8  and  C_13
REMARK    5  A    between atoms: C_9  and  C_10
REMARK    6  A    between atoms: C_10  and  C_11
REMARK    7  A    between atoms: C_10  and  O_12
REMARK    8  A    between atoms: C_13  and  C_14
REMARK    9  A    between atoms: C_14  and  C_15
REMARK   10  A    between atoms: C_14  and  O_16
REMARK                            x       y       z     vdW  Elec       q    Type
REMARK                         _______ _______ _______ _____ _____    ______ ____
ROOT
ATOM      1  N   UNL     1      -4.645 -20.214  -9.198  0.00  0.00    +0.000 N 
ENDROOT
BRANCH   1   6
ATOM      2  C   UNL     1      -7.793 -15.692 -10.921  0.00  0.00    +0.000 C 
ATOM      3  C   UNL     1      -6.995 -16.872 -10.458  0.00  0.00    +0.000 A 
ATOM      4  C   UNL     1      -6.087 -16.754  -9.411  0.00  0.00    +0.000 A 
ATOM      5  C   UNL     1      -5.319 -17.856  -9.001  0.00  0.00    +0.000 A 
ATOM      6  C   UNL     1      -5.400 -19.114  -9.625  0.00  0.00    +0.000 A 
ATOM      7  C   UNL     1      -6.329 -19.198 -10.678  0.00  0.00    +0.000 A 
ATOM      8  C   UNL     1      -7.104 -18.104 -11.097  0.00  0.00    +0.000 A 
ENDBRANCH   1   6
BRANCH   1   9
ATOM      9  C   UNL     1      -3.390 -20.573  -9.902  0.00  0.00    +0.000 C 
BRANCH   9  10
ATOM     10  C   UNL     1      -2.147 -20.511  -8.980  0.00  0.00    +0.000 C 
ATOM     11  C   UNL     1      -0.872 -20.796  -9.765  0.00  0.00    +0.000 C 
BRANCH  10  12
ATOM     12  O   UNL     1      -2.017 -19.217  -8.376  0.00  0.00    +0.000 OA
ATOM     13  H   UNL     1      -1.371 -18.707  -8.892  0.00  0.00    +0.000 HD
ENDBRANCH  10  12
ENDBRANCH   9  10
ENDBRANCH   1   9
BRANCH   1  14
ATOM     14  C   UNL     1      -5.268 -21.322  -8.429  0.00  0.00    +0.000 C 
BRANCH  14  15
ATOM     15  C   UNL     1      -6.004 -20.815  -7.166  0.00  0.00    +0.000 C 
ATOM     16  C   UNL     1      -7.517 -20.754  -7.338  0.00  0.00    +0.000 C 
BRANCH  15  17
ATOM     17  O   UNL     1      -5.721 -21.629  -6.029  0.00  0.00    +0.000 OA
ATOM     18  H   UNL     1      -5.262 -22.414  -6.388  0.00  0.00    +0.000 HD
ENDBRANCH  15  17
ENDBRANCH  14  15
ENDBRANCH   1  14
TORSDOF 7
ENDMDL
MODEL 4
REMARK VINA RESULT:    -5.016      2.001      4.223
REMARK INTER + INTRA:          -7.240
REMARK INTER:                  -6.861
REMARK INTRA:                  -0.379
REMARK UNBOUND:                -0.465
REMARK  Name = 
REMARK  10 active torsions:
REMARK  status: ('A' for Active; 'I' for Inactive)
REMARK    1  A    between atoms: C_1  and  C_2
REMARK    2  A    between atoms: C_5  and  N_8
REMARK    3  A    between atoms: N_8  and  C_9
REMARK    4  A    between atoms: N_8  and  C_13
REMARK    5  A    between atoms: C_9  and  C_10
REMARK    6  A    between atoms: C_10  and  C_11
REMARK    7  A    between atoms: C_10  and  O_12
REMARK    8  A    between atoms: C_13  and  C_14
REMARK    9  A    between atoms: C_14  and  C_15
REMARK   10  A    between atoms: C_14  and  O_16
REMARK                            x       y       z     vdW  Elec       q    Type
REMARK                         _______ _______ _______ _____ _____    ______ ____
ROOT
ATOM      1  N   UNL     1      -6.321 -19.174  -9.541  0.00  0.00    +0.000 N 
ENDROOT
BRANCH   1   6
ATOM      2  C   UNL     1      -8.296 -17.833 -14.797  0.00  0.00    +0.000 C 
ATOM      3  C   UNL     1      -7.761 -18.184 -13.443  0.00  0.00    +0.000 A 
ATOM      4  C   UNL     1      -7.787 -19.496 -12.983  0.00  0.00    +0.000 A 
ATOM      5  C   UNL     1      -7.311 -19.815 -11.700  0.00  0.00    +0.000 A 
ATOM      6  C   UNL     1      -6.812 -18.847 -10.811  0.00  0.00    +0.000 A 
ATOM      7  C   UNL     1      -6.799 -17.531 -11.310  0.00  0.00    +0.000 A 
ATOM      8  C   UNL     1      -7.269 -17.199 -12.591  0.00  0.00    +0.000 A 
ENDBRANCH   1   6
BRANCH   1   9
ATOM      9  C   UNL     1      -5.227 -18.375  -8.938  0.00  0.00    +0.000 C 
BRANCH   9  10
ATOM     10  C   UNL     1      -3.836 -19.031  -9.117  0.00  0.00    +0.000 C 
ATOM     11  C   UNL     1      -3.462 -19.122 -10.592  0.00  0.00    +0.000 C 
BRANCH  10  12
ATOM     12  O   UNL     1      -2.819 -18.272  -8.447  0.00  0.00    +0.000 OA
ATOM     13  H   UNL     1      -2.059 -18.191  -9.047  0.00  0.00    +0.000 HD
ENDBRANCH  10  12
ENDBRANCH   9  10
ENDBRANCH   1   9
BRANCH   1  14
ATOM     14  C   UNL     1      -6.470 -20.546  -8.989  0.00  0.00    +0.000 C 
BRANCH  14  15
ATOM     15  C   UNL     1      -7.428 -20.586  -7.775  0.00  0.00    +0.000 C 
ATOM     16  C   UNL     1      -6.727 -20.940  -6.469  0.00  0.00    +0.000 C 
BRANCH  15  17
ATOM     17  O   UNL     1      -8.101 -19.341  -7.593  0.00  0.00    +0.000 OA
ATOM     18  H   UNL     1      -7.638 -18.715  -8.185  0.00  0.00    +0.000 HD
ENDBRANCH  15  17
ENDBRANCH  14  15
ENDBRANCH   1  14
TORSDOF 7
ENDMDL
MODEL 5
REMARK VINA RESULT:    -5.008      1.955      2.810
REMARK INTER + INTRA:          -7.229
REMARK INTER:                  -6.604
REMARK INTRA:                  -0.625
REMARK UNBOUND:                -0.465
REMARK  Name = 
REMARK  10 active torsions:
REMARK  status: ('A' for Active; 'I' for Inactive)
REMARK    1  A    between atoms: C_1  and  C_2
REMARK    2  A    between atoms: C_5  and  N_8
REMARK    3  A    between atoms: N_8  and  C_9
REMARK    4  A    between atoms: N_8  and  C_13
REMARK    5  A    between atoms: C_9  and  C_10
REMARK    6  A    between atoms: C_10  and  C_11
REMARK    7  A    between atoms: C_10  and  O_12
REMARK    8  A    between atoms: C_13  and  C_14
REMARK    9  A    between atoms: C_14  and  C_15
REMARK   10  A    between atoms: C_14  and  O_16
REMARK                            x       y       z     vdW  Elec       q    Type
REMARK                         _______ _______ _______ _____ _____    ______ ____
ROOT
ATOM      1  N   UNL     1      -6.696 -18.947  -9.160  0.00  0.00    +0.000 N 
ENDROOT
BRANCH   1   6
ATOM      2  C   UNL     1      -7.922 -17.648 -14.650  0.00  0.00    +0.000 C 
ATOM      3  C   UNL     1      -7.580 -17.989 -13.232  0.00  0.00    +0.000 A 
ATOM      4  C   UNL     1      -7.687 -19.295 -12.766  0.00  0.00    +0.000 A 
ATOM      5  C   UNL     1      -7.393 -19.603 -11.427  0.00  0.00    +0.000 A 
ATOM      6  C   UNL     1      -7.006 -18.630 -10.489  0.00  0.00    +0.000 A 
ATOM      7  C   UNL     1      -6.907 -17.321 -10.996  0.00  0.00    +0.000 A 
ATOM      8  C   UNL     1      -7.195 -16.999 -12.333  0.00  0.00    +0.000 A 
ENDBRANCH   1   6
BRANCH   1   9
ATOM      9  C   UNL     1      -7.778 -19.066  -8.153  0.00  0.00    +0.000 C 
BRANCH   9  10
ATOM     10  C   UNL     1      -7.830 -20.464  -7.490  0.00  0.00    +0.000 C 
ATOM     11  C   UNL     1      -7.527 -21.560  -8.505  0.00  0.00    +0.000 C 
BRANCH  10  12
ATOM     12  O   UNL     1      -6.872 -20.566  -6.427  0.00  0.00    +0.000 OA
ATOM     13  H   UNL     1      -7.280 -21.066  -5.701  0.00  0.00    +0.000 HD
ENDBRANCH  10  12
ENDBRANCH   9  10
ENDBRANCH   1   9
BRANCH   1  14
ATOM     14  C   UNL     1      -5.348 -18.678  -8.600  0.00  0.00    +0.000 C 
BRANCH  14  15
ATOM     15  C   UNL     1      -4.374 -19.860  -8.825  0.00  0.00    +0.000 C 
ATOM     16  C   UNL     1      -3.017 -19.424  -9.365  0.00  0.00    +0.000 C 
BRANCH  15  17
ATOM     17  O   UNL     1      -4.155 -20.599  -7.625  0.00  0.00    +0.000 OA
ATOM     18  H   UNL     1      -4.732 -21.386  -7.704  0.00  0.00    +0.000 HD
ENDBRANCH  15  17
ENDBRANCH  14  15
ENDBRANCH   1  14
TORSDOF 7
ENDMDL
MODEL 6
REMARK VINA RESULT:    -4.620      4.653      7.309
REMARK INTER + INTRA:          -6.705
REMARK INTER:                  -6.022
REMARK INTRA:                  -0.684
REMARK UNBOUND:                -0.465
REMARK  Name = 
REMARK  10 active torsions:
REMARK  status: ('A' for Active; 'I' for Inactive)
REMARK    1  A    between atoms: C_1  and  C_2
REMARK    2  A    between atoms: C_5  and  N_8
REMARK    3  A    between atoms: N_8  and  C_9
REMARK    4  A    between atoms: N_8  and  C_13
REMARK    5  A    between atoms: C_9  and  C_10
REMARK    6  A    between atoms: C_10  and  C_11
REMARK    7  A    between atoms: C_10  and  O_12
REMARK    8  A    between atoms: C_13  and  C_14
REMARK    9  A    between atoms: C_14  and  C_15
REMARK   10  A    between atoms: C_14  and  O_16
REMARK                            x       y       z     vdW  Elec       q    Type
REMARK                         _______ _______ _______ _____ _____    ______ ____
ROOT
ATOM      1  N   UNL     1       0.579 -20.339  -6.590  0.00  0.00    +0.000 N 
ENDROOT
BRANCH   1   6
ATOM      2  C   UNL     1       1.867 -15.937  -3.085  0.00  0.00    +0.000 C 
ATOM      3  C   UNL     1       1.549 -17.071  -4.011  0.00  0.00    +0.000 A 
ATOM      4  C   UNL     1       0.522 -16.966  -4.942  0.00  0.00    +0.000 A 
ATOM      5  C   UNL     1       0.209 -18.043  -5.787  0.00  0.00    +0.000 A 
ATOM      6  C   UNL     1       0.883 -19.276  -5.731  0.00  0.00    +0.000 A 
ATOM      7  C   UNL     1       1.918 -19.345  -4.779  0.00  0.00    +0.000 A 
ATOM      8  C   UNL     1       2.242 -18.275  -3.929  0.00  0.00    +0.000 A 
ENDBRANCH   1   6
BRANCH   1   9
ATOM      9  C   UNL     1      -0.725 -21.036  -6.477  0.00  0.00    +0.000 C 
BRANCH   9  10
ATOM     10  C   UNL     1      -1.573 -20.934  -7.769  0.00  0.00    +0.000 C 
ATOM     11  C   UNL     1      -2.996 -21.423  -7.526  0.00  0.00    +0.000 C 
BRANCH  10  12
ATOM     12  O   UNL     1      -1.642 -19.579  -8.234  0.00  0.00    +0.000 OA
ATOM     13  H   UNL     1      -1.993 -19.589  -9.140  0.00  0.00    +0.000 HD
ENDBRANCH  10  12
ENDBRANCH   9  10
ENDBRANCH   1   9
BRANCH   1  14
ATOM     14  C   UNL     1       1.652 -21.126  -7.250  0.00  0.00    +0.000 C 
BRANCH  14  15
ATOM     15  C   UNL     1       2.238 -20.397  -8.483  0.00  0.00    +0.000 C 
ATOM     16  C   UNL     1       2.641 -21.345  -9.605  0.00  0.00    +0.000 C 
BRANCH  15  17
ATOM     17  O   UNL     1       1.319 -19.445  -9.018  0.00  0.00    +0.000 OA
ATOM     18  H   UNL     1       1.105 -19.776  -9.914  0.00  0.00    +0.000 HD
ENDBRANCH  15  17
ENDBRANCH  14  15
ENDBRANCH   1  14
TORSDOF 7
ENDMDL
MODEL 7
REMARK VINA RESULT:    -4.518      1.895      3.451
REMARK INTER + INTRA:          -6.568
REMARK INTER:                  -5.834
REMARK INTRA:                  -0.733
REMARK UNBOUND:                -0.465
REMARK  Name = 
REMARK  10 active torsions:
REMARK  status: ('A' for Active; 'I' for Inactive)
REMARK    1  A    between atoms: C_1  and  C_2
REMARK    2  A    between atoms: C_5  and  N_8
REMARK    3  A    between atoms: N_8  and  C_9
REMARK    4  A    between atoms: N_8  and  C_13
REMARK    5  A    between atoms: C_9  and  C_10
REMARK    6  A    between atoms: C_10  and  C_11
REMARK    7  A    between atoms: C_10  and  O_12
REMARK    8  A    between atoms: C_13  and  C_14
REMARK    9  A    between atoms: C_14  and  C_15
REMARK   10  A    between atoms: C_14  and  O_16
REMARK                            x       y       z     vdW  Elec       q    Type
REMARK                         _______ _______ _______ _____ _____    ______ ____
ROOT
ATOM      1  N   UNL     1      -4.415 -20.113 -10.227  0.00  0.00    +0.000 N 
ENDROOT
BRANCH   1   6
ATOM      2  C   UNL     1      -8.066 -15.649 -10.498  0.00  0.00    +0.000 C 
ATOM      3  C   UNL     1      -7.102 -16.794 -10.441  0.00  0.00    +0.000 A 
ATOM      4  C   UNL     1      -7.137 -17.806 -11.395  0.00  0.00    +0.000 A 
ATOM      5  C   UNL     1      -6.251 -18.892 -11.320  0.00  0.00    +0.000 A 
ATOM      6  C   UNL     1      -5.309 -19.036 -10.285  0.00  0.00    +0.000 A 
ATOM      7  C   UNL     1      -5.300 -17.994  -9.339  0.00  0.00    +0.000 A 
ATOM      8  C   UNL     1      -6.180 -16.901  -9.404  0.00  0.00    +0.000 A 
ENDBRANCH   1   6
BRANCH   1   9
ATOM      9  C   UNL     1      -4.056 -20.848 -11.463  0.00  0.00    +0.000 C 
BRANCH   9  10
ATOM     10  C   UNL     1      -2.906 -20.174 -12.250  0.00  0.00    +0.000 C 
ATOM     11  C   UNL     1      -3.411 -19.599 -13.568  0.00  0.00    +0.000 C 
BRANCH  10  12
ATOM     12  O   UNL     1      -2.323 -19.104 -11.493  0.00  0.00    +0.000 OA
ATOM     13  H   UNL     1      -1.387 -19.032 -11.745  0.00  0.00    +0.000 HD
ENDBRANCH  10  12
ENDBRANCH   9  10
ENDBRANCH   1   9
BRANCH   1  14
ATOM     14  C   UNL     1      -4.204 -20.869  -8.966  0.00  0.00    +0.000 C 
BRANCH  14  15
ATOM     15  C   UNL     1      -2.797 -20.628  -8.368  0.00  0.00    +0.000 C 
ATOM     16  C   UNL     1      -1.759 -21.633  -8.854  0.00  0.00    +0.000 C 
BRANCH  15  17
ATOM     17  O   UNL     1      -2.316 -19.318  -8.664  0.00  0.00    +0.000 OA
ATOM     18  H   UNL     1      -1.494 -19.460  -9.176  0.00  0.00    +0.000 HD
ENDBRANCH  15  17
ENDBRANCH  14  15
ENDBRANCH   1  14
TORSDOF 7
ENDMDL
MODEL 8
REMARK VINA RESULT:    -4.449      2.192      4.935
REMARK INTER + INTRA:          -6.474
REMARK INTER:                  -5.915
REMARK INTRA:                  -0.559
REMARK UNBOUND:                -0.465
REMARK  Name = 
REMARK  10 active torsions:
REMARK  status: ('A' for Active; 'I' for Inactive)
REMARK    1  A    between atoms: C_1  and  C_2
REMARK    2  A    between atoms: C_5  and  N_8
REMARK    3  A    between atoms: N_8  and  C_9
REMARK    4  A    between atoms: N_8  and  C_13
REMARK    5  A    between atoms: C_9  and  C_10
REMARK    6  A    between atoms: C_10  and  C_11
REMARK    7  A    between atoms: C_10  and  O_12
REMARK    8  A    between atoms: C_13  and  C_14
REMARK    9  A    between atoms: C_14  and  C_15
REMARK   10  A    between atoms: C_14  and  O_16
REMARK                            x       y       z     vdW  Elec       q    Type
REMARK                         _______ _______ _______ _____ _____    ______ ____
ROOT
ATOM      1  N   UNL     1      -6.017 -18.684  -9.693  0.00  0.00    +0.000 N 
ENDROOT
BRANCH   1   6
ATOM      2  C   UNL     1      -0.826 -21.149 -10.244  0.00  0.00    +0.000 C 
ATOM      3  C   UNL     1      -2.162 -20.488 -10.097  0.00  0.00    +0.000 A 
ATOM      4  C   UNL     1      -2.795 -20.422  -8.860  0.00  0.00    +0.000 A 
ATOM      5  C   UNL     1      -4.061 -19.827  -8.734  0.00  0.00    +0.000 A 
ATOM      6  C   UNL     1      -4.764 -19.293  -9.829  0.00  0.00    +0.000 A 
ATOM      7  C   UNL     1      -4.093 -19.375 -11.063  0.00  0.00    +0.000 A 
ATOM      8  C   UNL     1      -2.826 -19.965 -11.203  0.00  0.00    +0.000 A 
ENDBRANCH   1   6
BRANCH   1   9
ATOM      9  C   UNL     1      -7.254 -19.472  -9.909  0.00  0.00    +0.000 C 
BRANCH   9  10
ATOM     10  C   UNL     1      -7.867 -20.002  -8.589  0.00  0.00    +0.000 C 
ATOM     11  C   UNL     1      -7.387 -21.419  -8.295  0.00  0.00    +0.000 C 
BRANCH  10  12
ATOM     12  O   UNL     1      -7.498 -19.170  -7.480  0.00  0.00    +0.000 OA
ATOM     13  H   UNL     1      -8.018 -19.449  -6.708  0.00  0.00    +0.000 HD
ENDBRANCH  10  12
ENDBRANCH   9  10
ENDBRANCH   1   9
BRANCH   1  14
ATOM     14  C   UNL     1      -6.179 -17.215  -9.843  0.00  0.00    +0.000 C 
BRANCH  14  15
ATOM     15  C   UNL     1      -7.222 -16.850 -10.926  0.00  0.00    +0.000 C 
ATOM     16  C   UNL     1      -8.195 -15.765 -10.480  0.00  0.00    +0.000 C 
BRANCH  15  17
ATOM     17  O   UNL     1      -6.599 -16.415 -12.134  0.00  0.00    +0.000 OA
ATOM     18  H   UNL     1      -6.796 -17.117 -12.787  0.00  0.00    +0.000 HD
ENDBRANCH  15  17
ENDBRANCH  14  15
ENDBRANCH   1  14
TORSDOF 7
ENDMDL
MODEL 9
REMARK VINA RESULT:    -4.448      1.445      3.407
REMARK INTER + INTRA:          -6.474
REMARK INTER:                  -6.034
REMARK INTRA:                  -0.440
REMARK UNBOUND:                -0.465
REMARK  Name = 
REMARK  10 active torsions:
REMARK  status: ('A' for Active; 'I' for Inactive)
REMARK    1  A    between atoms: C_1  and  C_2
REMARK    2  A    between atoms: C_5  and  N_8
REMARK    3  A    between atoms: N_8  and  C_9
REMARK    4  A    between atoms: N_8  and  C_13
REMARK    5  A    between atoms: C_9  and  C_10
REMARK    6  A    between atoms: C_10  and  C_11
REMARK    7  A    between atoms: C_10  and  O_12
REMARK    8  A    between atoms: C_13  and  C_14
REMARK    9  A    between atoms: C_14  and  C_15
REMARK   10  A    between atoms: C_14  and  O_16
REMARK                            x       y       z     vdW  Elec       q    Type
REMARK                         _______ _______ _______ _____ _____    ______ ____
ROOT
ATOM      1  N   UNL     1      -4.606 -20.955  -9.553  0.00  0.00    +0.000 N 
ENDROOT
BRANCH   1   6
ATOM      2  C   UNL     1      -7.548 -16.009 -10.019  0.00  0.00    +0.000 C 
ATOM      3  C   UNL     1      -6.799 -17.299  -9.879  0.00  0.00    +0.000 A 
ATOM      4  C   UNL     1      -5.669 -17.385  -9.074  0.00  0.00    +0.000 A 
ATOM      5  C   UNL     1      -4.953 -18.590  -8.970  0.00  0.00    +0.000 A 
ATOM      6  C   UNL     1      -5.313 -19.752  -9.676  0.00  0.00    +0.000 A 
ATOM      7  C   UNL     1      -6.462 -19.629 -10.479  0.00  0.00    +0.000 A 
ATOM      8  C   UNL     1      -7.188 -18.431 -10.590  0.00  0.00    +0.000 A 
ENDBRANCH   1   6
BRANCH   1   9
ATOM      9  C   UNL     1      -3.586 -21.325 -10.563  0.00  0.00    +0.000 C 
BRANCH   9  10
ATOM     10  C   UNL     1      -2.311 -20.450 -10.476  0.00  0.00    +0.000 C 
ATOM     11  C   UNL     1      -1.054 -21.307 -10.574  0.00  0.00    +0.000 C 
BRANCH  10  12
ATOM     12  O   UNL     1      -2.275 -19.486 -11.537  0.00  0.00    +0.000 OA
ATOM     13  H   UNL     1      -1.470 -18.952 -11.432  0.00  0.00    +0.000 HD
ENDBRANCH  10  12
ENDBRANCH   9  10
ENDBRANCH   1   9
BRANCH   1  14
ATOM     14  C   UNL     1      -5.159 -22.095  -8.777  0.00  0.00    +0.000 C 
BRANCH  14  15
ATOM     15  C   UNL     1      -4.631 -22.122  -7.322  0.00  0.00    +0.000 C 
ATOM     16  C   UNL     1      -3.170 -21.703  -7.207  0.00  0.00    +0.000 C 
BRANCH  15  17
ATOM     17  O   UNL     1      -5.401 -21.280  -6.466  0.00  0.00    +0.000 OA
ATOM     18  H   UNL     1      -5.457 -20.424  -6.937  0.00  0.00    +0.000 HD
ENDBRANCH  15  17
ENDBRANCH  14  15
ENDBRANCH   1  14
TORSDOF 7
ENDMDL
