MODEL 1
REMARK VINA RESULT:    -4.162      0.000      0.000
REMARK INTER + INTRA:          -4.566
REMARK INTER:                  -4.527
REMARK INTRA:                  -0.039
REMARK UNBOUND:                -0.039
REMARK  Name = 
REMARK  3 active torsions:
REMARK  status: ('A' for Active; 'I' for Inactive)
REMARK    1  A    between atoms: C_1  and  O_2
REMARK    2  A    between atoms: O_2  and  C_3
REMARK    3  A    between atoms: C_8  and  O_9
REMARK                            x       y       z     vdW  Elec       q    Type
REMARK                         _______ _______ _______ _____ _____    ______ ____
ROOT
ATOM      1  C   UNL     1      -6.307 -19.336  -8.088  0.00  0.00    +0.000 A 
ATOM      2  C   UNL     1      -7.666 -19.093  -8.280  0.00  0.00    +0.000 A 
ATOM      3  C   UNL     1      -8.081 -17.980  -9.021  0.00  0.00    +0.000 A 
ATOM      4  C   UNL     1      -7.141 -17.106  -9.572  0.00  0.00    +0.000 A 
ATOM      5  C   UNL     1      -5.781 -17.342  -9.385  0.00  0.00    +0.000 A 
ATOM      6  C   UNL     1      -5.379 -18.449  -8.648  0.00  0.00    +0.000 A 
ENDROOT
BRANCH   1   8
ATOM      7  C   UNL     1      -6.618 -21.046  -6.468  0.00  0.00    +0.000 C 
ATOM      8  O   UNL     1      -5.760 -20.381  -7.387  0.00  0.00    +0.000 OA
ENDBRANCH   1   8
BRANCH   6   9
ATOM      9  O   UNL     1      -4.036 -18.660  -8.478  0.00  0.00    +0.000 OA
ATOM     10  H   UNL     1      -3.692 -18.807  -9.380  0.00  0.00    +0.000 HD
ENDBRANCH   6   9
TORSDOF 2
ENDMDL
MODEL 2
REMARK VINA RESULT:    -4.157      2.176      3.043
REMARK INTER + INTRA:          -4.561
REMARK INTER:                  -4.523
REMARK INTRA:                  -0.038
REMARK UNBOUND:                -0.039
REMARK  Name = 
REMARK  3 active torsions:
REMARK  status: ('A' for Active; 'I' for Inactive)
REMARK    1  A    between atoms: C_1  and  O_2
REMARK    2  A    between atoms: O_2  and  C_3
REMARK    3  A    between atoms: C_8  and  O_9
REMARK                            x       y       z     vdW  Elec       q    Type
REMARK                         _______ _______ _______ _____ _____    ______ ____
ROOT
ATOM      1  C   UNL     1      -5.665 -17.921 -10.300  0.00  0.00    +0.000 A 
ATOM      2  C   UNL     1      -6.227 -17.060  -9.358  0.00  0.00    +0.000 A 
ATOM      3  C   UNL     1      -7.136 -16.075  -9.765  0.00  0.00    +0.000 A 
ATOM      4  C   UNL     1      -7.484 -15.946 -11.111  0.00  0.00    +0.000 A 
ATOM      5  C   UNL     1      -6.927 -16.802 -12.057  0.00  0.00    +0.000 A 
ATOM      6  C   UNL     1      -6.026 -17.776 -11.645  0.00  0.00    +0.000 A 
ENDROOT
BRANCH   1   8
ATOM      7  C   UNL     1      -4.615 -19.312  -8.685  0.00  0.00    +0.000 C 
ATOM      8  O   UNL     1      -4.766 -18.926 -10.045  0.00  0.00    +0.000 OA
ENDBRANCH   1   8
BRANCH   6   9
ATOM      9  O   UNL     1      -5.492 -18.606 -12.594  0.00  0.00    +0.000 OA
ATOM     10  H   UNL     1      -5.727 -18.193 -13.446  0.00  0.00    +0.000 HD
ENDBRANCH   6   9
TORSDOF 2
ENDMDL
MODEL 3
REMARK VINA RESULT:    -4.075      1.216      2.462
REMARK INTER + INTRA:          -4.471
REMARK INTER:                  -4.431
REMARK INTRA:                  -0.040
REMARK UNBOUND:                -0.039
REMARK  Name = 
REMARK  3 active torsions:
REMARK  status: ('A' for Active; 'I' for Inactive)
REMARK    1  A    between atoms: C_1  and  O_2
REMARK    2  A    between atoms: O_2  and  C_3
REMARK    3  A    between atoms: C_8  and  O_9
REMARK                            x       y       z     vdW  Elec       q    Type
REMARK                         _______ _______ _______ _____ _____    ______ ____
ROOT
ATOM      1  C   UNL     1      -5.984 -18.922  -8.460  0.00  0.00    +0.000 A 
ATOM      2  C   UNL     1      -5.601 -17.858  -9.276  0.00  0.00    +0.000 A 
ATOM      3  C   UNL     1      -6.563 -16.951  -9.739  0.00  0.00    +0.000 A 
ATOM      4  C   UNL     1      -7.906 -17.103  -9.389  0.00  0.00    +0.000 A 
ATOM      5  C   UNL     1      -8.295 -18.163  -8.574  0.00  0.00    +0.000 A 
ATOM      6  C   UNL     1      -7.335 -19.058  -8.120  0.00  0.00    +0.000 A 
ENDROOT
BRANCH   1   8
ATOM      7  C   UNL     1      -3.951 -20.138  -8.651  0.00  0.00    +0.000 C 
ATOM      8  O   UNL     1      -5.154 -19.882  -7.937  0.00  0.00    +0.000 OA
ENDBRANCH   1   8
BRANCH   6   9
ATOM      9  O   UNL     1      -7.742 -20.092  -7.319  0.00  0.00    +0.000 OA
ATOM     10  H   UNL     1      -7.157 -20.836  -7.558  0.00  0.00    +0.000 HD
ENDBRANCH   6   9
TORSDOF 2
ENDMDL
MODEL 4
REMARK VINA RESULT:    -4.058      2.637      4.049
REMARK INTER + INTRA:          -4.453
REMARK INTER:                  -4.414
REMARK INTRA:                  -0.038
REMARK UNBOUND:                -0.039
REMARK  Name = 
REMARK  3 active torsions:
REMARK  status: ('A' for Active; 'I' for Inactive)
REMARK    1  A    between atoms: C_1  and  O_2
REMARK    2  A    between atoms: O_2  and  C_3
REMARK    3  A    between atoms: C_8  and  O_9
REMARK                            x       y       z     vdW  Elec       q    Type
REMARK                         _______ _______ _______ _____ _____    ______ ____
ROOT
ATOM      1  C   UNL     1      -6.021 -17.786 -11.741  0.00  0.00    +0.000 A 
ATOM      2  C   UNL     1      -6.963 -16.814 -12.076  0.00  0.00    +0.000 A 
ATOM      3  C   UNL     1      -7.497 -15.984 -11.081  0.00  0.00    +0.000 A 
ATOM      4  C   UNL     1      -7.093 -16.124  -9.752  0.00  0.00    +0.000 A 
ATOM      5  C   UNL     1      -6.153 -17.093  -9.409  0.00  0.00    +0.000 A 
ATOM      6  C   UNL     1      -5.629 -17.911 -10.402  0.00  0.00    +0.000 A 
ENDROOT
BRANCH   1   8
ATOM      7  C   UNL     1      -5.476 -18.332 -13.988  0.00  0.00    +0.000 C 
ATOM      8  O   UNL     1      -5.418 -18.663 -12.606  0.00  0.00    +0.000 OA
ENDBRANCH   1   8
BRANCH   6   9
ATOM      9  O   UNL     1      -4.706 -18.856 -10.041  0.00  0.00    +0.000 OA
ATOM     10  H   UNL     1      -3.918 -18.344  -9.775  0.00  0.00    +0.000 HD
ENDBRANCH   6   9
TORSDOF 2
ENDMDL
MODEL 5
REMARK VINA RESULT:    -4.044      7.738      8.945
REMARK INTER + INTRA:          -4.438
REMARK INTER:                  -4.409
REMARK INTRA:                  -0.029
REMARK UNBOUND:                -0.039
REMARK  Name = 
REMARK  3 active torsions:
REMARK  status: ('A' for Active; 'I' for Inactive)
REMARK    1  A    between atoms: C_1  and  O_2
REMARK    2  A    between atoms: O_2  and  C_3
REMARK    3  A    between atoms: C_8  and  O_9
REMARK                            x       y       z     vdW  Elec       q    Type
REMARK                         _______ _______ _______ _____ _____    ______ ____
ROOT
ATOM      1  C   UNL     1       0.433 -16.264  -4.593  0.00  0.00    +0.000 A 
ATOM      2  C   UNL     1       0.044 -17.222  -5.529  0.00  0.00    +0.000 A 
ATOM      3  C   UNL     1       0.713 -18.451  -5.591  0.00  0.00    +0.000 A 
ATOM      4  C   UNL     1       1.769 -18.727  -4.721  0.00  0.00    +0.000 A 
ATOM      5  C   UNL     1       2.163 -17.776  -3.783  0.00  0.00    +0.000 A 
ATOM      6  C   UNL     1       1.494 -16.559  -3.729  0.00  0.00    +0.000 A 
ENDROOT
BRANCH   1   8
ATOM      7  C   UNL     1      -1.356 -14.977  -3.704  0.00  0.00    +0.000 C 
ATOM      8  O   UNL     1      -0.128 -15.024  -4.421  0.00  0.00    +0.000 OA
ENDBRANCH   1   8
BRANCH   6   9
ATOM      9  O   UNL     1       1.899 -15.640  -2.798  0.00  0.00    +0.000 OA
ATOM     10  H   UNL     1       2.325 -14.931  -3.317  0.00  0.00    +0.000 HD
ENDBRANCH   6   9
TORSDOF 2
ENDMDL
MODEL 6
REMARK VINA RESULT:    -3.960      7.245      8.354
REMARK INTER + INTRA:          -4.346
REMARK INTER:                  -4.305
REMARK INTRA:                  -0.042
REMARK UNBOUND:                -0.039
REMARK  Name = 
REMARK  3 active torsions:
REMARK  status: ('A' for Active; 'I' for Inactive)
REMARK    1  A    between atoms: C_1  and  O_2
REMARK    2  A    between atoms: O_2  and  C_3
REMARK    3  A    between atoms: C_8  and  O_9
REMARK                            x       y       z     vdW  Elec       q    Type
REMARK                         _______ _______ _______ _____ _____    ______ ____
ROOT
ATOM      1  C   UNL     1       0.692 -17.914  -5.305  0.00  0.00    +0.000 A 
ATOM      2  C   UNL     1       1.735 -18.145  -4.409  0.00  0.00    +0.000 A 
ATOM      3  C   UNL     1       2.102 -17.151  -3.493  0.00  0.00    +0.000 A 
ATOM      4  C   UNL     1       1.432 -15.927  -3.469  0.00  0.00    +0.000 A 
ATOM      5  C   UNL     1       0.388 -15.689  -4.361  0.00  0.00    +0.000 A 
ATOM      6  C   UNL     1       0.031 -16.680  -5.266  0.00  0.00    +0.000 A 
ENDROOT
BRANCH   1   8
ATOM      7  C   UNL     1       0.287 -20.173  -5.922  0.00  0.00    +0.000 C 
ATOM      8  O   UNL     1       0.227 -18.791  -6.253  0.00  0.00    +0.000 OA
ENDBRANCH   1   8
BRANCH   6   9
ATOM      9  O   UNL     1      -0.998 -16.423  -6.133  0.00  0.00    +0.000 OA
ATOM     10  H   UNL     1      -1.421 -17.290  -6.281  0.00  0.00    +0.000 HD
ENDBRANCH   6   9
TORSDOF 2
ENDMDL
MODEL 7
REMARK VINA RESULT:    -3.954      7.741      8.654
REMARK INTER + INTRA:          -4.339
REMARK INTER:                  -4.293
REMARK INTRA:                  -0.046
REMARK UNBOUND:                -0.039
REMARK  Name = 
REMARK  3 active torsions:
REMARK  status: ('A' for Active; 'I' for Inactive)
REMARK    1  A    between atoms: C_1  and  O_2
REMARK    2  A    between atoms: O_2  and  C_3
REMARK    3  A    between atoms: C_8  and  O_9
REMARK                            x       y       z     vdW  Elec       q    Type
REMARK                         _______ _______ _______ _____ _____    ______ ____
ROOT
ATOM      1  C   UNL     1       1.017 -16.863  -4.162  0.00  0.00    +0.000 A 
ATOM      2  C   UNL     1       0.270 -16.846  -5.339  0.00  0.00    +0.000 A 
ATOM      3  C   UNL     1      -0.896 -16.073  -5.417  0.00  0.00    +0.000 A 
ATOM      4  C   UNL     1      -1.318 -15.317  -4.322  0.00  0.00    +0.000 A 
ATOM      5  C   UNL     1      -0.576 -15.328  -3.143  0.00  0.00    +0.000 A 
ATOM      6  C   UNL     1       0.578 -16.097  -3.075  0.00  0.00    +0.000 A 
ENDROOT
BRANCH   1   8
ATOM      7  C   UNL     1       2.177 -18.926  -4.376  0.00  0.00    +0.000 C 
ATOM      8  O   UNL     1       2.172 -17.570  -3.945  0.00  0.00    +0.000 OA
ENDBRANCH   1   8
BRANCH   6   9
ATOM      9  O   UNL     1       1.290 -16.092  -1.905  0.00  0.00    +0.000 OA
ATOM     10  H   UNL     1       1.892 -15.328  -1.984  0.00  0.00    +0.000 HD
ENDBRANCH   6   9
TORSDOF 2
ENDMDL
MODEL 8
REMARK VINA RESULT:    -3.923      2.726      3.302
REMARK INTER + INTRA:          -4.306
REMARK INTER:                  -4.256
REMARK INTRA:                  -0.051
REMARK UNBOUND:                -0.039
REMARK  Name = 
REMARK  3 active torsions:
REMARK  status: ('A' for Active; 'I' for Inactive)
REMARK    1  A    between atoms: C_1  and  O_2
REMARK    2  A    between atoms: O_2  and  C_3
REMARK    3  A    between atoms: C_8  and  O_9
REMARK                            x       y       z     vdW  Elec       q    Type
REMARK                         _______ _______ _______ _____ _____    ______ ____
ROOT
ATOM      1  C   UNL     1      -7.179 -18.515 -10.479  0.00  0.00    +0.000 A 
ATOM      2  C   UNL     1      -6.729 -17.904 -11.649  0.00  0.00    +0.000 A 
ATOM      3  C   UNL     1      -6.917 -16.529 -11.837  0.00  0.00    +0.000 A 
ATOM      4  C   UNL     1      -7.554 -15.762 -10.860  0.00  0.00    +0.000 A 
ATOM      5  C   UNL     1      -8.006 -16.365  -9.688  0.00  0.00    +0.000 A 
ATOM      6  C   UNL     1      -7.816 -17.729  -9.511  0.00  0.00    +0.000 A 
ENDROOT
BRANCH   1   8
ATOM      7  C   UNL     1      -7.881 -20.746 -10.902  0.00  0.00    +0.000 C 
ATOM      8  O   UNL     1      -7.065 -19.845 -10.163  0.00  0.00    +0.000 OA
ENDBRANCH   1   8
BRANCH   6   9
ATOM      9  O   UNL     1      -8.269 -18.300  -8.351  0.00  0.00    +0.000 OA
ATOM     10  H   UNL     1      -9.179 -17.961  -8.247  0.00  0.00    +0.000 HD
ENDBRANCH   6   9
TORSDOF 2
ENDMDL
MODEL 9
REMARK VINA RESULT:    -3.857      1.391      3.170
REMARK INTER + INTRA:          -4.234
REMARK INTER:                  -4.197
REMARK INTRA:                  -0.038
REMARK UNBOUND:                -0.039
REMARK  Name = 
REMARK  3 active torsions:
REMARK  status: ('A' for Active; 'I' for Inactive)
REMARK    1  A    between atoms: C_1  and  O_2
REMARK    2  A    between atoms: O_2  and  C_3
REMARK    3  A    between atoms: C_8  and  O_9
REMARK                            x       y       z     vdW  Elec       q    Type
REMARK                         _______ _______ _______ _____ _____    ______ ____
ROOT
ATOM      1  C   UNL     1      -6.717 -17.897  -9.091  0.00  0.00    +0.000 A 
ATOM      2  C   UNL     1      -7.994 -18.360  -8.774  0.00  0.00    +0.000 A 
ATOM      3  C   UNL     1      -8.146 -19.532  -8.022  0.00  0.00    +0.000 A 
ATOM      4  C   UNL     1      -7.027 -20.244  -7.587  0.00  0.00    +0.000 A 
ATOM      5  C   UNL     1      -5.749 -19.788  -7.900  0.00  0.00    +0.000 A 
ATOM      6  C   UNL     1      -5.607 -18.625  -8.646  0.00  0.00    +0.000 A 
ENDROOT
BRANCH   1   8
ATOM      7  C   UNL     1      -7.516 -16.103 -10.429  0.00  0.00    +0.000 C 
ATOM      8  O   UNL     1      -6.420 -16.771  -9.816  0.00  0.00    +0.000 OA
ENDBRANCH   1   8
BRANCH   6   9
ATOM      9  O   UNL     1      -4.340 -18.197  -8.941  0.00  0.00    +0.000 OA
ATOM     10  H   UNL     1      -4.076 -18.721  -9.720  0.00  0.00    +0.000 HD
ENDBRANCH   6   9
TORSDOF 2
ENDMDL
