MODEL 1
REMARK VINA RESULT:    -5.211      0.000      0.000
REMARK INTER + INTRA:          -7.543
REMARK INTER:                  -7.039
REMARK INTRA:                  -0.504
REMARK UNBOUND:                -0.504
REMARK  Name = 
REMARK  10 active torsions:
REMARK  status: ('A' for Active; 'I' for Inactive)
REMARK    1  A    between atoms: C_1  and  C_2
REMARK    2  A    between atoms: C_5  and  N_8
REMARK    3  A    between atoms: N_8  and  C_9
REMARK    4  A    between atoms: N_8  and  C_13
REMARK    5  A    between atoms: C_9  and  C_10
REMARK    6  A    between atoms: C_10  and  C_11
REMARK    7  A    between atoms: C_10  and  O_12
REMARK    8  A    between atoms: C_13  and  C_14
REMARK    9  A    between atoms: C_14  and  C_15
REMARK   10  A    between atoms: C_14  and  O_16
REMARK                            x       y       z     vdW  Elec       q    Type
REMARK                         _______ _______ _______ _____ _____    ______ ____
ROOT
ATOM      1  N   UNL     1      -4.590 -20.347  -8.894  0.00  0.00    +0.000 N 
ENDROOT
BRANCH   1   6
ATOM      2  C   UNL     1      -7.691 -15.860 -10.783  0.00  0.00    +0.000 C 
ATOM      3  C   UNL     1      -6.868 -17.018 -10.309  0.00  0.00    +0.000 A 
ATOM      4  C   UNL     1      -7.007 -18.277 -10.885  0.00  0.00    +0.000 A 
ATOM      5  C   UNL     1      -6.255 -19.366 -10.416  0.00  0.00    +0.000 A 
ATOM      6  C   UNL     1      -5.351 -19.261  -9.343  0.00  0.00    +0.000 A 
ATOM      7  C   UNL     1      -5.235 -17.974  -8.786  0.00  0.00    +0.000 A 
ATOM      8  C   UNL     1      -5.980 -16.876  -9.247  0.00  0.00    +0.000 A 
ENDBRANCH   1   6
BRANCH   1   9
ATOM      9  C   UNL     1      -4.785 -20.875  -7.522  0.00  0.00    +0.000 C 
BRANCH   9  10
ATOM     10  C   UNL     1      -6.279 -20.984  -7.128  0.00  0.00    +0.000 C 
ATOM     11  C   UNL     1      -6.902 -22.251  -7.700  0.00  0.00    +0.000 C 
BRANCH  10  12
ATOM     12  O   UNL     1      -6.434 -21.018  -5.702  0.00  0.00    +0.000 OA
ATOM     13  H   UNL     1      -5.735 -21.585  -5.336  0.00  0.00    +0.000 HD
ENDBRANCH  10  12
ENDBRANCH   9  10
ENDBRANCH   1   9
BRANCH   1  14
ATOM     14  C   UNL     1      -3.275 -20.671  -9.506  0.00  0.00    +0.000 C 
BRANCH  14  15
ATOM     15  C   UNL     1      -2.101 -20.434  -8.526  0.00  0.00    +0.000 C 
ATOM     16  C   UNL     1      -0.797 -21.075  -8.988  0.00  0.00    +0.000 C 
BRANCH  15  17
ATOM     17  O   UNL     1      -1.860 -19.044  -8.317  0.00  0.00    +0.000 OA
ATOM     18  H   UNL     1      -2.736 -18.666  -8.097  0.00  0.00    +0.000 HD
ENDBRANCH  15  17
ENDBRANCH  14  15
ENDBRANCH   1  14
TORSDOF 7
ENDMDL
MODEL 2
REMARK VINA RESULT:    -5.151      0.856      3.566
REMARK INTER + INTRA:          -7.462
REMARK INTER:                  -6.836
REMARK INTRA:                  -0.626
REMARK UNBOUND:                -0.504
REMARK  Name = 
REMARK  10 active torsions:
REMARK  status: ('A' for Active; 'I' for Inactive)
REMARK    1  A    between atoms: C_1  and  C_2
REMARK    2  A    between atoms: C_5  and  N_8
REMARK    3  A    between atoms: N_8  and  C_9
REMARK    4  A    between atoms: N_8  and  C_13
REMARK    5  A    between atoms: C_9  and  C_10
REMARK    6  A    between atoms: C_10  and  C_11
REMARK    7  A    between atoms: C_10  and  O_12
REMARK    8  A    between atoms: C_13  and  C_14
REMARK    9  A    between atoms: C_14  and  C_15
REMARK   10  A    between atoms: C_14  and  O_16
REMARK                            x       y       z     vdW  Elec       q    Type
REMARK                         _______ _______ _______ _____ _____    ______ ____
ROOT
ATOM      1  N   UNL     1      -4.629 -20.263  -8.900  0.00  0.00    +0.000 N 
ENDROOT
BRANCH   1   6
ATOM      2  C   UNL     1      -7.822 -15.819 -10.738  0.00  0.00    +0.000 C 
ATOM      3  C   UNL     1      -6.977 -16.967 -10.279  0.00  0.00    +0.000 A 
ATOM      4  C   UNL     1      -7.157 -18.242 -10.803  0.00  0.00    +0.000 A 
ATOM      5  C   UNL     1      -6.382 -19.321 -10.347  0.00  0.00    +0.000 A 
ATOM      6  C   UNL     1      -5.412 -19.187  -9.337  0.00  0.00    +0.000 A 
ATOM      7  C   UNL     1      -5.255 -17.884  -8.831  0.00  0.00    +0.000 A 
ATOM      8  C   UNL     1      -6.022 -16.796  -9.280  0.00  0.00    +0.000 A 
ENDBRANCH   1   6
BRANCH   1   9
ATOM      9  C   UNL     1      -3.977 -21.157  -9.887  0.00  0.00    +0.000 C 
BRANCH   9  10
ATOM     10  C   UNL     1      -2.601 -20.626 -10.361  0.00  0.00    +0.000 C 
ATOM     11  C   UNL     1      -2.738 -19.838 -11.658  0.00  0.00    +0.000 C 
BRANCH  10  12
ATOM     12  O   UNL     1      -2.016 -19.763  -9.376  0.00  0.00    +0.000 OA
ATOM     13  H   UNL     1      -1.261 -19.308  -9.785  0.00  0.00    +0.000 HD
ENDBRANCH  10  12
ENDBRANCH   9  10
ENDBRANCH   1   9
BRANCH   1  14
ATOM     14  C   UNL     1      -4.821 -20.856  -7.552  0.00  0.00    +0.000 C 
BRANCH  14  15
ATOM     15  C   UNL     1      -6.313 -20.921  -7.149  0.00  0.00    +0.000 C 
ATOM     16  C   UNL     1      -7.047 -22.112  -7.753  0.00  0.00    +0.000 C 
BRANCH  15  17
ATOM     17  O   UNL     1      -6.475 -20.975  -5.732  0.00  0.00    +0.000 OA
ATOM     18  H   UNL     1      -7.425 -20.798  -5.579  0.00  0.00    +0.000 HD
ENDBRANCH  15  17
ENDBRANCH  14  15
ENDBRANCH   1  14
TORSDOF 7
ENDMDL
MODEL 3
REMARK VINA RESULT:    -5.005      2.083      4.172
REMARK INTER + INTRA:          -7.265
REMARK INTER:                  -6.943
REMARK INTRA:                  -0.322
REMARK UNBOUND:                -0.504
REMARK  Name = 
REMARK  10 active torsions:
REMARK  status: ('A' for Active; 'I' for Inactive)
REMARK    1  A    between atoms: C_1  and  C_2
REMARK    2  A    between atoms: C_5  and  N_8
REMARK    3  A    between atoms: N_8  and  C_9
REMARK    4  A    between atoms: N_8  and  C_13
REMARK    5  A    between atoms: C_9  and  C_10
REMARK    6  A    between atoms: C_10  and  C_11
REMARK    7  A    between atoms: C_10  and  O_12
REMARK    8  A    between atoms: C_13  and  C_14
REMARK    9  A    between atoms: C_14  and  C_15
REMARK   10  A    between atoms: C_14  and  O_16
REMARK                            x       y       z     vdW  Elec       q    Type
REMARK                         _______ _______ _______ _____ _____    ______ ____
ROOT
ATOM      1  N   UNL     1      -6.445 -19.134  -9.548  0.00  0.00    +0.000 N 
ENDROOT
BRANCH   1   6
ATOM      2  C   UNL     1      -8.296 -17.793 -14.849  0.00  0.00    +0.000 C 
ATOM      3  C   UNL     1      -7.793 -18.144 -13.483  0.00  0.00    +0.000 A 
ATOM      4  C   UNL     1      -7.838 -19.455 -13.020  0.00  0.00    +0.000 A 
ATOM      5  C   UNL     1      -7.393 -19.774 -11.727  0.00  0.00    +0.000 A 
ATOM      6  C   UNL     1      -6.906 -18.806 -10.829  0.00  0.00    +0.000 A 
ATOM      7  C   UNL     1      -6.872 -17.492 -11.332  0.00  0.00    +0.000 A 
ATOM      8  C   UNL     1      -7.313 -17.160 -12.623  0.00  0.00    +0.000 A 
ENDBRANCH   1   6
BRANCH   1   9
ATOM      9  C   UNL     1      -5.428 -18.284  -8.884  0.00  0.00    +0.000 C 
BRANCH   9  10
ATOM     10  C   UNL     1      -3.994 -18.857  -9.006  0.00  0.00    +0.000 C 
ATOM     11  C   UNL     1      -3.590 -19.007 -10.468  0.00  0.00    +0.000 C 
BRANCH  10  12
ATOM     12  O   UNL     1      -3.040 -17.997  -8.368  0.00  0.00    +0.000 OA
ATOM     13  H   UNL     1      -2.278 -18.538  -8.102  0.00  0.00    +0.000 HD
ENDBRANCH  10  12
ENDBRANCH   9  10
ENDBRANCH   1   9
BRANCH   1  14
ATOM     14  C   UNL     1      -6.528 -20.525  -9.034  0.00  0.00    +0.000 C 
BRANCH  14  15
ATOM     15  C   UNL     1      -7.500 -20.647  -7.835  0.00  0.00    +0.000 C 
ATOM     16  C   UNL     1      -6.798 -20.994  -6.527  0.00  0.00    +0.000 C 
BRANCH  15  17
ATOM     17  O   UNL     1      -8.241 -19.445  -7.633  0.00  0.00    +0.000 OA
ATOM     18  H   UNL     1      -7.734 -18.753  -8.102  0.00  0.00    +0.000 HD
ENDBRANCH  15  17
ENDBRANCH  14  15
ENDBRANCH   1  14
TORSDOF 7
ENDMDL
MODEL 4
REMARK VINA RESULT:    -4.985      1.979      2.653
REMARK INTER + INTRA:          -7.238
REMARK INTER:                  -6.608
REMARK INTRA:                  -0.631
REMARK UNBOUND:                -0.504
REMARK  Name = 
REMARK  10 active torsions:
REMARK  status: ('A' for Active; 'I' for Inactive)
REMARK    1  A    between atoms: C_1  and  C_2
REMARK    2  A    between atoms: C_5  and  N_8
REMARK    3  A    between atoms: N_8  and  C_9
REMARK    4  A    between atoms: N_8  and  C_13
REMARK    5  A    between atoms: C_9  and  C_10
REMARK    6  A    between atoms: C_10  and  C_11
REMARK    7  A    between atoms: C_10  and  O_12
REMARK    8  A    between atoms: C_13  and  C_14
REMARK    9  A    between atoms: C_14  and  C_15
REMARK   10  A    between atoms: C_14  and  O_16
REMARK                            x       y       z     vdW  Elec       q    Type
REMARK                         _______ _______ _______ _____ _____    ______ ____
ROOT
ATOM      1  N   UNL     1      -6.685 -18.987  -9.130  0.00  0.00    +0.000 N 
ENDROOT
BRANCH   1   6
ATOM      2  C   UNL     1      -7.936 -17.727 -14.623  0.00  0.00    +0.000 C 
ATOM      3  C   UNL     1      -7.588 -18.057 -13.204  0.00  0.00    +0.000 A 
ATOM      4  C   UNL     1      -7.673 -19.363 -12.733  0.00  0.00    +0.000 A 
ATOM      5  C   UNL     1      -7.374 -19.662 -11.394  0.00  0.00    +0.000 A 
ATOM      6  C   UNL     1      -7.001 -18.679 -10.459  0.00  0.00    +0.000 A 
ATOM      7  C   UNL     1      -6.923 -17.371 -10.971  0.00  0.00    +0.000 A 
ATOM      8  C   UNL     1      -7.218 -17.058 -12.308  0.00  0.00    +0.000 A 
ENDBRANCH   1   6
BRANCH   1   9
ATOM      9  C   UNL     1      -7.764 -19.114  -8.120  0.00  0.00    +0.000 C 
BRANCH   9  10
ATOM     10  C   UNL     1      -7.799 -20.511  -7.452  0.00  0.00    +0.000 C 
ATOM     11  C   UNL     1      -7.495 -21.608  -8.465  0.00  0.00    +0.000 C 
BRANCH  10  12
ATOM     12  O   UNL     1      -6.831 -20.600  -6.396  0.00  0.00    +0.000 OA
ATOM     13  H   UNL     1      -6.963 -19.843  -5.802  0.00  0.00    +0.000 HD
ENDBRANCH  10  12
ENDBRANCH   9  10
ENDBRANCH   1   9
BRANCH   1  14
ATOM     14  C   UNL     1      -5.339 -18.699  -8.573  0.00  0.00    +0.000 C 
BRANCH  14  15
ATOM     15  C   UNL     1      -4.349 -19.865  -8.806  0.00  0.00    +0.000 C 
ATOM     16  C   UNL     1      -2.988 -19.404  -9.315  0.00  0.00    +0.000 C 
BRANCH  15  17
ATOM     17  O   UNL     1      -4.140 -20.625  -7.616  0.00  0.00    +0.000 OA
ATOM     18  H   UNL     1      -3.237 -20.390  -7.321  0.00  0.00    +0.000 HD
ENDBRANCH  15  17
ENDBRANCH  14  15
ENDBRANCH   1  14
TORSDOF 7
ENDMDL
MODEL 5
REMARK VINA RESULT:    -4.568      0.999      3.575
REMARK INTER + INTRA:          -6.675
REMARK INTER:                  -6.162
REMARK INTRA:                  -0.512
REMARK UNBOUND:                -0.504
REMARK  Name = 
REMARK  10 active torsions:
REMARK  status: ('A' for Active; 'I' for Inactive)
REMARK    1  A    between atoms: C_1  and  C_2
REMARK    2  A    between atoms: C_5  and  N_8
REMARK    3  A    between atoms: N_8  and  C_9
REMARK    4  A    between atoms: N_8  and  C_13
REMARK    5  A    between atoms: C_9  and  C_10
REMARK    6  A    between atoms: C_10  and  C_11
REMARK    7  A    between atoms: C_10  and  O_12
REMARK    8  A    between atoms: C_13  and  C_14
REMARK    9  A    between atoms: C_14  and  C_15
REMARK   10  A    between atoms: C_14  and  O_16
REMARK                            x       y       z     vdW  Elec       q    Type
REMARK                         _______ _______ _______ _____ _____    ______ ____
ROOT
ATOM      1  N   UNL     1      -5.103 -20.654  -9.258  0.00  0.00    +0.000 N 
ENDROOT
BRANCH   1   6
ATOM      2  C   UNL     1      -7.508 -15.694 -10.973  0.00  0.00    +0.000 C 
ATOM      3  C   UNL     1      -6.904 -16.986 -10.514  0.00  0.00    +0.000 A 
ATOM      4  C   UNL     1      -6.063 -17.027  -9.406  0.00  0.00    +0.000 A 
ATOM      5  C   UNL     1      -5.476 -18.236  -8.998  0.00  0.00    +0.000 A 
ATOM      6  C   UNL     1      -5.677 -19.449  -9.682  0.00  0.00    +0.000 A 
ATOM      7  C   UNL     1      -6.533 -19.370 -10.795  0.00  0.00    +0.000 A 
ATOM      8  C   UNL     1      -7.129 -18.168 -11.213  0.00  0.00    +0.000 A 
ENDBRANCH   1   6
BRANCH   1   9
ATOM      9  C   UNL     1      -3.656 -20.902  -9.464  0.00  0.00    +0.000 C 
BRANCH   9  10
ATOM     10  C   UNL     1      -2.810 -20.606  -8.201  0.00  0.00    +0.000 C 
ATOM     11  C   UNL     1      -1.832 -21.741  -7.922  0.00  0.00    +0.000 C 
BRANCH  10  12
ATOM     12  O   UNL     1      -2.055 -19.397  -8.358  0.00  0.00    +0.000 OA
ATOM     13  H   UNL     1      -1.145 -19.570  -8.065  0.00  0.00    +0.000 HD
ENDBRANCH  10  12
ENDBRANCH   9  10
ENDBRANCH   1   9
BRANCH   1  14
ATOM     14  C   UNL     1      -5.927 -21.877  -9.081  0.00  0.00    +0.000 C 
BRANCH  14  15
ATOM     15  C   UNL     1      -6.802 -21.814  -7.806  0.00  0.00    +0.000 C 
ATOM     16  C   UNL     1      -6.041 -21.323  -6.581  0.00  0.00    +0.000 C 
BRANCH  15  17
ATOM     17  O   UNL     1      -7.938 -20.969  -7.989  0.00  0.00    +0.000 OA
ATOM     18  H   UNL     1      -7.794 -20.217  -7.380  0.00  0.00    +0.000 HD
ENDBRANCH  15  17
ENDBRANCH  14  15
ENDBRANCH   1  14
TORSDOF 7
ENDMDL
MODEL 6
REMARK VINA RESULT:    -4.541      4.577      7.860
REMARK INTER + INTRA:          -6.638
REMARK INTER:                  -6.214
REMARK INTRA:                  -0.424
REMARK UNBOUND:                -0.504
REMARK  Name = 
REMARK  10 active torsions:
REMARK  status: ('A' for Active; 'I' for Inactive)
REMARK    1  A    between atoms: C_1  and  C_2
REMARK    2  A    between atoms: C_5  and  N_8
REMARK    3  A    between atoms: N_8  and  C_9
REMARK    4  A    between atoms: N_8  and  C_13
REMARK    5  A    between atoms: C_9  and  C_10
REMARK    6  A    between atoms: C_10  and  C_11
REMARK    7  A    between atoms: C_10  and  O_12
REMARK    8  A    between atoms: C_13  and  C_14
REMARK    9  A    between atoms: C_14  and  C_15
REMARK   10  A    between atoms: C_14  and  O_16
REMARK                            x       y       z     vdW  Elec       q    Type
REMARK                         _______ _______ _______ _____ _____    ______ ____
ROOT
ATOM      1  N   UNL     1       0.468 -19.900  -7.049  0.00  0.00    +0.000 N 
ENDROOT
BRANCH   1   6
ATOM      2  C   UNL     1       1.750 -16.128  -2.871  0.00  0.00    +0.000 C 
ATOM      3  C   UNL     1       1.435 -17.096  -3.970  0.00  0.00    +0.000 A 
ATOM      4  C   UNL     1       0.455 -16.811  -4.914  0.00  0.00    +0.000 A 
ATOM      5  C   UNL     1       0.143 -17.736  -5.924  0.00  0.00    +0.000 A 
ATOM      6  C   UNL     1       0.770 -18.991  -6.028  0.00  0.00    +0.000 A 
ATOM      7  C   UNL     1       1.757 -19.244  -5.058  0.00  0.00    +0.000 A 
ATOM      8  C   UNL     1       2.081 -18.327  -4.044  0.00  0.00    +0.000 A 
ENDBRANCH   1   6
BRANCH   1   9
ATOM      9  C   UNL     1       1.091 -19.751  -8.386  0.00  0.00    +0.000 C 
BRANCH   9  10
ATOM     10  C   UNL     1       2.464 -20.458  -8.490  0.00  0.00    +0.000 C 
ATOM     11  C   UNL     1       2.449 -21.519  -9.584  0.00  0.00    +0.000 C 
BRANCH  10  12
ATOM     12  O   UNL     1       3.505 -19.519  -8.797  0.00  0.00    +0.000 OA
ATOM     13  H   UNL     1       3.092 -18.654  -8.959  0.00  0.00    +0.000 HD
ENDBRANCH  10  12
ENDBRANCH   9  10
ENDBRANCH   1   9
BRANCH   1  14
ATOM     14  C   UNL     1      -0.795 -20.683  -7.033  0.00  0.00    +0.000 C 
BRANCH  14  15
ATOM     15  C   UNL     1      -1.631 -20.469  -8.317  0.00  0.00    +0.000 C 
ATOM     16  C   UNL     1      -2.716 -21.523  -8.508  0.00  0.00    +0.000 C 
BRANCH  15  17
ATOM     17  O   UNL     1      -2.254 -19.186  -8.334  0.00  0.00    +0.000 OA
ATOM     18  H   UNL     1      -3.123 -19.332  -8.760  0.00  0.00    +0.000 HD
ENDBRANCH  15  17
ENDBRANCH  14  15
ENDBRANCH   1  14
TORSDOF 7
ENDMDL
MODEL 7
REMARK VINA RESULT:    -4.481      7.013      8.560
REMARK INTER + INTRA:          -6.558
REMARK INTER:                  -6.193
REMARK INTRA:                  -0.365
REMARK UNBOUND:                -0.504
REMARK  Name = 
REMARK  10 active torsions:
REMARK  status: ('A' for Active; 'I' for Inactive)
REMARK    1  A    between atoms: C_1  and  C_2
REMARK    2  A    between atoms: C_5  and  N_8
REMARK    3  A    between atoms: N_8  and  C_9
REMARK    4  A    between atoms: N_8  and  C_13
REMARK    5  A    between atoms: C_9  and  C_10
REMARK    6  A    between atoms: C_10  and  C_11
REMARK    7  A    between atoms: C_10  and  O_12
REMARK    8  A    between atoms: C_13  and  C_14
REMARK    9  A    between atoms: C_14  and  C_15
REMARK   10  A    between atoms: C_14  and  O_16
REMARK                            x       y       z     vdW  Elec       q    Type
REMARK                         _______ _______ _______ _____ _____    ______ ____
ROOT
ATOM      1  N   UNL     1       2.637 -20.245  -4.948  0.00  0.00    +0.000 N 
ENDROOT
BRANCH   1   6
ATOM      2  C   UNL     1      -0.393 -15.337  -4.716  0.00  0.00    +0.000 C 
ATOM      3  C   UNL     1       0.410 -16.599  -4.792  0.00  0.00    +0.000 A 
ATOM      4  C   UNL     1       0.125 -17.571  -5.745  0.00  0.00    +0.000 A 
ATOM      5  C   UNL     1       0.861 -18.766  -5.792  0.00  0.00    +0.000 A 
ATOM      6  C   UNL     1       1.894 -19.060  -4.884  0.00  0.00    +0.000 A 
ATOM      7  C   UNL     1       2.156 -18.054  -3.935  0.00  0.00    +0.000 A 
ATOM      8  C   UNL     1       1.429 -16.854  -3.878  0.00  0.00    +0.000 A 
ENDBRANCH   1   6
BRANCH   1   9
ATOM      9  C   UNL     1       2.061 -21.513  -4.438  0.00  0.00    +0.000 C 
BRANCH   9  10
ATOM     10  C   UNL     1       1.509 -22.418  -5.566  0.00  0.00    +0.000 C 
ATOM     11  C   UNL     1      -0.014 -22.369  -5.608  0.00  0.00    +0.000 C 
BRANCH  10  12
ATOM     12  O   UNL     1       2.002 -22.002  -6.848  0.00  0.00    +0.000 OA
ATOM     13  H   UNL     1       1.239 -21.767  -7.402  0.00  0.00    +0.000 HD
ENDBRANCH  10  12
ENDBRANCH   9  10
ENDBRANCH   1   9
BRANCH   1  14
ATOM     14  C   UNL     1       4.121 -20.220  -5.024  0.00  0.00    +0.000 C 
BRANCH  14  15
ATOM     15  C   UNL     1       4.777 -20.204  -3.623  0.00  0.00    +0.000 C 
ATOM     16  C   UNL     1       5.619 -21.444  -3.342  0.00  0.00    +0.000 C 
BRANCH  15  17
ATOM     17  O   UNL     1       5.606 -19.057  -3.442  0.00  0.00    +0.000 OA
ATOM     18  H   UNL     1       5.651 -18.636  -4.324  0.00  0.00    +0.000 HD
ENDBRANCH  15  17
ENDBRANCH  14  15
ENDBRANCH   1  14
TORSDOF 7
ENDMDL
MODEL 8
REMARK VINA RESULT:    -4.381      2.145      4.860
REMARK INTER + INTRA:          -6.422
REMARK INTER:                  -5.822
REMARK INTRA:                  -0.599
REMARK UNBOUND:                -0.504
REMARK  Name = 
REMARK  10 active torsions:
REMARK  status: ('A' for Active; 'I' for Inactive)
REMARK    1  A    between atoms: C_1  and  C_2
REMARK    2  A    between atoms: C_5  and  N_8
REMARK    3  A    between atoms: N_8  and  C_9
REMARK    4  A    between atoms: N_8  and  C_13
REMARK    5  A    between atoms: C_9  and  C_10
REMARK    6  A    between atoms: C_10  and  C_11
REMARK    7  A    between atoms: C_10  and  O_12
REMARK    8  A    between atoms: C_13  and  C_14
REMARK    9  A    between atoms: C_14  and  C_15
REMARK   10  A    between atoms: C_14  and  O_16
REMARK                            x       y       z     vdW  Elec       q    Type
REMARK                         _______ _______ _______ _____ _____    ______ ____
ROOT
ATOM      1  N   UNL     1      -6.024 -18.687  -9.530  0.00  0.00    +0.000 N 
ENDROOT
BRANCH   1   6
ATOM      2  C   UNL     1      -0.846 -21.070 -10.451  0.00  0.00    +0.000 C 
ATOM      3  C   UNL     1      -2.200 -20.474 -10.214  0.00  0.00    +0.000 A 
ATOM      4  C   UNL     1      -2.962 -19.988 -11.272  0.00  0.00    +0.000 A 
ATOM      5  C   UNL     1      -4.218 -19.403 -11.040  0.00  0.00    +0.000 A 
ATOM      6  C   UNL     1      -4.762 -19.254  -9.752  0.00  0.00    +0.000 A 
ATOM      7  C   UNL     1      -3.966 -19.758  -8.707  0.00  0.00    +0.000 A 
ATOM      8  C   UNL     1      -2.709 -20.347  -8.925  0.00  0.00    +0.000 A 
ENDBRANCH   1   6
BRANCH   1   9
ATOM      9  C   UNL     1      -7.245 -19.517  -9.664  0.00  0.00    +0.000 C 
BRANCH   9  10
ATOM     10  C   UNL     1      -7.692 -20.147  -8.322  0.00  0.00    +0.000 C 
ATOM     11  C   UNL     1      -7.171 -21.573  -8.189  0.00  0.00    +0.000 C 
BRANCH  10  12
ATOM     12  O   UNL     1      -7.200 -19.389  -7.208  0.00  0.00    +0.000 OA
ATOM     13  H   UNL     1      -7.532 -18.480  -7.292  0.00  0.00    +0.000 HD
ENDBRANCH  10  12
ENDBRANCH   9  10
ENDBRANCH   1   9
BRANCH   1  14
ATOM     14  C   UNL     1      -6.245 -17.224  -9.667  0.00  0.00    +0.000 C 
BRANCH  14  15
ATOM     15  C   UNL     1      -7.169 -16.883 -10.861  0.00  0.00    +0.000 C 
ATOM     16  C   UNL     1      -8.097 -15.706 -10.582  0.00  0.00    +0.000 C 
BRANCH  15  17
ATOM     17  O   UNL     1      -6.421 -16.586 -12.039  0.00  0.00    +0.000 OA
ATOM     18  H   UNL     1      -6.494 -15.616 -12.146  0.00  0.00    +0.000 HD
ENDBRANCH  15  17
ENDBRANCH  14  15
ENDBRANCH   1  14
TORSDOF 7
ENDMDL
MODEL 9
REMARK VINA RESULT:    -3.486      2.527      5.410
REMARK INTER + INTRA:          -5.214
REMARK INTER:                  -4.715
REMARK INTRA:                  -0.499
REMARK UNBOUND:                -0.504
REMARK  Name = 
REMARK  10 active torsions:
REMARK  status: ('A' for Active; 'I' for Inactive)
REMARK    1  A    between atoms: C_1  and  C_2
REMARK    2  A    between atoms: C_5  and  N_8
REMARK    3  A    between atoms: N_8  and  C_9
REMARK    4  A    between atoms: N_8  and  C_13
REMARK    5  A    between atoms: C_9  and  C_10
REMARK    6  A    between atoms: C_10  and  C_11
REMARK    7  A    between atoms: C_10  and  O_12
REMARK    8  A    between atoms: C_13  and  C_14
REMARK    9  A    between atoms: C_14  and  C_15
REMARK   10  A    between atoms: C_14  and  O_16
REMARK                            x       y       z     vdW  Elec       q    Type
REMARK                         _______ _______ _______ _____ _____    ______ ____
ROOT
ATOM      1  N   UNL     1      -5.828 -18.352  -9.470  0.00  0.00    +0.000 N 
ENDROOT
BRANCH   1   6
ATOM      2  C   UNL     1      -1.315 -20.886 -12.029  0.00  0.00    +0.000 C 
ATOM      3  C   UNL     1      -2.499 -20.249 -11.368  0.00  0.00    +0.000 A 
ATOM      4  C   UNL     1      -3.440 -19.544 -12.111  0.00  0.00    +0.000 A 
ATOM      5  C   UNL     1      -4.531 -18.924 -11.482  0.00  0.00    +0.000 A 
ATOM      6  C   UNL     1      -4.726 -18.956 -10.089  0.00  0.00    +0.000 A 
ATOM      7  C   UNL     1      -3.757 -19.679  -9.369  0.00  0.00    +0.000 A 
ATOM      8  C   UNL     1      -2.662 -20.306  -9.986  0.00  0.00    +0.000 A 
ENDBRANCH   1   6
BRANCH   1   9
ATOM      9  C   UNL     1      -6.125 -16.920  -9.716  0.00  0.00    +0.000 C 
BRANCH   9  10
ATOM     10  C   UNL     1      -7.268 -16.712 -10.740  0.00  0.00    +0.000 C 
ATOM     11  C   UNL     1      -8.296 -15.717 -10.214  0.00  0.00    +0.000 C 
BRANCH  10  12
ATOM     12  O   UNL     1      -6.759 -16.209 -11.983  0.00  0.00    +0.000 OA
ATOM     13  H   UNL     1      -7.041 -15.283 -12.071  0.00  0.00    +0.000 HD
ENDBRANCH  10  12
ENDBRANCH   9  10
ENDBRANCH   1   9
BRANCH   1  14
ATOM     14  C   UNL     1      -6.404 -18.904  -8.217  0.00  0.00    +0.000 C 
BRANCH  14  15
ATOM     15  C   UNL     1      -7.856 -19.404  -8.413  0.00  0.00    +0.000 C 
ATOM     16  C   UNL     1      -8.040 -20.231  -9.679  0.00  0.00    +0.000 C 
BRANCH  15  17
ATOM     17  O   UNL     1      -8.297 -20.188  -7.305  0.00  0.00    +0.000 OA
ATOM     18  H   UNL     1      -7.677 -20.944  -7.268  0.00  0.00    +0.000 HD
ENDBRANCH  15  17
ENDBRANCH  14  15
ENDBRANCH   1  14
TORSDOF 7
ENDMDL
