MODEL 1
REMARK VINA RESULT:    -4.162      0.000      0.000
REMARK INTER + INTRA:          -4.565
REMARK INTER:                  -4.527
REMARK INTRA:                  -0.038
REMARK UNBOUND:                -0.038
REMARK  Name = 
REMARK  3 active torsions:
REMARK  status: ('A' for Active; 'I' for Inactive)
REMARK    1  A    between atoms: C_1  and  O_2
REMARK    2  A    between atoms: O_2  and  C_3
REMARK    3  A    between atoms: C_8  and  O_9
REMARK                            x       y       z     vdW  Elec       q    Type
REMARK                         _______ _______ _______ _____ _____    ______ ____
ROOT
ATOM      1  C   UNL     1      -5.647 -17.909 -10.336  0.00  0.00    +0.000 A 
ATOM      2  C   UNL     1      -6.194 -17.068  -9.369  0.00  0.00    +0.000 A 
ATOM      3  C   UNL     1      -7.123 -16.087  -9.738  0.00  0.00    +0.000 A 
ATOM      4  C   UNL     1      -7.506 -15.942 -11.073  0.00  0.00    +0.000 A 
ATOM      5  C   UNL     1      -6.965 -16.779 -12.046  0.00  0.00    +0.000 A 
ATOM      6  C   UNL     1      -6.044 -17.749 -11.670  0.00  0.00    +0.000 A 
ENDROOT
BRANCH   1   8
ATOM      7  C   UNL     1      -4.522 -19.293  -8.766  0.00  0.00    +0.000 C 
ATOM      8  O   UNL     1      -4.732 -18.908 -10.119  0.00  0.00    +0.000 OA
ENDBRANCH   1   8
BRANCH   6   9
ATOM      9  O   UNL     1      -5.525 -18.560 -12.644  0.00  0.00    +0.000 OA
ATOM     10  H   UNL     1      -5.549 -18.019 -13.456  0.00  0.00    +0.000 HD
ENDBRANCH   6   9
TORSDOF 2
ENDMDL
MODEL 2
REMARK VINA RESULT:    -4.134      2.183      3.034
REMARK INTER + INTRA:          -4.535
REMARK INTER:                  -4.495
REMARK INTRA:                  -0.040
REMARK UNBOUND:                -0.038
REMARK  Name = 
REMARK  3 active torsions:
REMARK  status: ('A' for Active; 'I' for Inactive)
REMARK    1  A    between atoms: C_1  and  O_2
REMARK    2  A    between atoms: O_2  and  C_3
REMARK    3  A    between atoms: C_8  and  O_9
REMARK                            x       y       z     vdW  Elec       q    Type
REMARK                         _______ _______ _______ _____ _____    ______ ____
ROOT
ATOM      1  C   UNL     1      -6.190 -19.310  -8.152  0.00  0.00    +0.000 A 
ATOM      2  C   UNL     1      -7.554 -19.100  -8.353  0.00  0.00    +0.000 A 
ATOM      3  C   UNL     1      -7.992 -17.972  -9.057  0.00  0.00    +0.000 A 
ATOM      4  C   UNL     1      -7.072 -17.051  -9.562  0.00  0.00    +0.000 A 
ATOM      5  C   UNL     1      -5.708 -17.254  -9.366  0.00  0.00    +0.000 A 
ATOM      6  C   UNL     1      -5.282 -18.376  -8.666  0.00  0.00    +0.000 A 
ENDROOT
BRANCH   1   8
ATOM      7  C   UNL     1      -6.427 -21.000  -6.499  0.00  0.00    +0.000 C 
ATOM      8  O   UNL     1      -5.622 -20.365  -7.484  0.00  0.00    +0.000 OA
ENDBRANCH   1   8
BRANCH   6   9
ATOM      9  O   UNL     1      -3.936 -18.554  -8.486  0.00  0.00    +0.000 OA
ATOM     10  H   UNL     1      -3.529 -18.209  -9.303  0.00  0.00    +0.000 HD
ENDBRANCH   6   9
TORSDOF 2
ENDMDL
MODEL 3
REMARK VINA RESULT:    -4.073      1.584      1.967
REMARK INTER + INTRA:          -4.468
REMARK INTER:                  -4.415
REMARK INTRA:                  -0.052
REMARK UNBOUND:                -0.038
REMARK  Name = 
REMARK  3 active torsions:
REMARK  status: ('A' for Active; 'I' for Inactive)
REMARK    1  A    between atoms: C_1  and  O_2
REMARK    2  A    between atoms: O_2  and  C_3
REMARK    3  A    between atoms: C_8  and  O_9
REMARK                            x       y       z     vdW  Elec       q    Type
REMARK                         _______ _______ _______ _____ _____    ______ ____
ROOT
ATOM      1  C   UNL     1      -7.039 -17.703  -9.455  0.00  0.00    +0.000 A 
ATOM      2  C   UNL     1      -7.855 -16.573  -9.484  0.00  0.00    +0.000 A 
ATOM      3  C   UNL     1      -7.911 -15.779 -10.636  0.00  0.00    +0.000 A 
ATOM      4  C   UNL     1      -7.153 -16.110 -11.761  0.00  0.00    +0.000 A 
ATOM      5  C   UNL     1      -6.335 -17.238 -11.740  0.00  0.00    +0.000 A 
ATOM      6  C   UNL     1      -6.286 -18.019 -10.593  0.00  0.00    +0.000 A 
ENDROOT
BRANCH   1   8
ATOM      7  C   UNL     1      -8.016 -19.362  -8.063  0.00  0.00    +0.000 C 
ATOM      8  O   UNL     1      -6.886 -18.567  -8.401  0.00  0.00    +0.000 OA
ENDBRANCH   1   8
BRANCH   6   9
ATOM      9  O   UNL     1      -5.475 -19.123 -10.597  0.00  0.00    +0.000 OA
ATOM     10  H   UNL     1      -4.609 -18.794 -10.906  0.00  0.00    +0.000 HD
ENDBRANCH   6   9
TORSDOF 2
ENDMDL
MODEL 4
REMARK VINA RESULT:    -4.062      0.818      2.727
REMARK INTER + INTRA:          -4.456
REMARK INTER:                  -4.418
REMARK INTRA:                  -0.038
REMARK UNBOUND:                -0.038
REMARK  Name = 
REMARK  3 active torsions:
REMARK  status: ('A' for Active; 'I' for Inactive)
REMARK    1  A    between atoms: C_1  and  O_2
REMARK    2  A    between atoms: O_2  and  C_3
REMARK    3  A    between atoms: C_8  and  O_9
REMARK                            x       y       z     vdW  Elec       q    Type
REMARK                         _______ _______ _______ _____ _____    ______ ____
ROOT
ATOM      1  C   UNL     1      -6.026 -17.772 -11.732  0.00  0.00    +0.000 A 
ATOM      2  C   UNL     1      -6.968 -16.797 -12.060  0.00  0.00    +0.000 A 
ATOM      3  C   UNL     1      -7.500 -15.974 -11.060  0.00  0.00    +0.000 A 
ATOM      4  C   UNL     1      -7.096 -16.122  -9.732  0.00  0.00    +0.000 A 
ATOM      5  C   UNL     1      -6.155 -17.092  -9.397  0.00  0.00    +0.000 A 
ATOM      6  C   UNL     1      -5.633 -17.905 -10.395  0.00  0.00    +0.000 A 
ENDROOT
BRANCH   1   8
ATOM      7  C   UNL     1      -5.519 -18.326 -13.987  0.00  0.00    +0.000 C 
ATOM      8  O   UNL     1      -5.424 -18.644 -12.603  0.00  0.00    +0.000 OA
ENDBRANCH   1   8
BRANCH   6   9
ATOM      9  O   UNL     1      -4.709 -18.852 -10.040  0.00  0.00    +0.000 OA
ATOM     10  H   UNL     1      -5.191 -19.700 -10.092  0.00  0.00    +0.000 HD
ENDBRANCH   6   9
TORSDOF 2
ENDMDL
MODEL 5
REMARK VINA RESULT:    -4.035      1.195      1.611
REMARK INTER + INTRA:          -4.427
REMARK INTER:                  -4.381
REMARK INTRA:                  -0.046
REMARK UNBOUND:                -0.038
REMARK  Name = 
REMARK  3 active torsions:
REMARK  status: ('A' for Active; 'I' for Inactive)
REMARK    1  A    between atoms: C_1  and  O_2
REMARK    2  A    between atoms: O_2  and  C_3
REMARK    3  A    between atoms: C_8  and  O_9
REMARK                            x       y       z     vdW  Elec       q    Type
REMARK                         _______ _______ _______ _____ _____    ______ ____
ROOT
ATOM      1  C   UNL     1      -5.715 -18.069 -11.248  0.00  0.00    +0.000 A 
ATOM      2  C   UNL     1      -5.669 -17.983  -9.857  0.00  0.00    +0.000 A 
ATOM      3  C   UNL     1      -6.393 -16.984  -9.193  0.00  0.00    +0.000 A 
ATOM      4  C   UNL     1      -7.163 -16.070  -9.914  0.00  0.00    +0.000 A 
ATOM      5  C   UNL     1      -7.215 -16.150 -11.304  0.00  0.00    +0.000 A 
ATOM      6  C   UNL     1      -6.493 -17.143 -11.954  0.00  0.00    +0.000 A 
ENDROOT
BRANCH   1   8
ATOM      7  C   UNL     1      -3.701 -19.248 -11.695  0.00  0.00    +0.000 C 
ATOM      8  O   UNL     1      -5.060 -18.989 -12.026  0.00  0.00    +0.000 OA
ENDBRANCH   1   8
BRANCH   6   9
ATOM      9  O   UNL     1      -6.560 -17.201 -13.321  0.00  0.00    +0.000 OA
ATOM     10  H   UNL     1      -7.390 -17.679 -13.509  0.00  0.00    +0.000 HD
ENDBRANCH   6   9
TORSDOF 2
ENDMDL
MODEL 6
REMARK VINA RESULT:    -4.016      2.509      3.248
REMARK INTER + INTRA:          -4.406
REMARK INTER:                  -4.355
REMARK INTRA:                  -0.051
REMARK UNBOUND:                -0.038
REMARK  Name = 
REMARK  3 active torsions:
REMARK  status: ('A' for Active; 'I' for Inactive)
REMARK    1  A    between atoms: C_1  and  O_2
REMARK    2  A    between atoms: O_2  and  C_3
REMARK    3  A    between atoms: C_8  and  O_9
REMARK                            x       y       z     vdW  Elec       q    Type
REMARK                         _______ _______ _______ _____ _____    ______ ____
ROOT
ATOM      1  C   UNL     1      -6.018 -19.135  -8.272  0.00  0.00    +0.000 A 
ATOM      2  C   UNL     1      -5.546 -18.088  -9.062  0.00  0.00    +0.000 A 
ATOM      3  C   UNL     1      -6.444 -17.162  -9.606  0.00  0.00    +0.000 A 
ATOM      4  C   UNL     1      -7.815 -17.279  -9.365  0.00  0.00    +0.000 A 
ATOM      5  C   UNL     1      -8.294 -18.322  -8.576  0.00  0.00    +0.000 A 
ATOM      6  C   UNL     1      -7.395 -19.236  -8.040  0.00  0.00    +0.000 A 
ENDROOT
BRANCH   1   8
ATOM      7  C   UNL     1      -4.449 -20.899  -8.543  0.00  0.00    +0.000 C 
ATOM      8  O   UNL     1      -5.257 -20.110  -7.678  0.00  0.00    +0.000 OA
ENDBRANCH   1   8
BRANCH   6   9
ATOM      9  O   UNL     1      -7.891 -20.253  -7.268  0.00  0.00    +0.000 OA
ATOM     10  H   UNL     1      -8.807 -19.985  -7.063  0.00  0.00    +0.000 HD
ENDBRANCH   6   9
TORSDOF 2
ENDMDL
MODEL 7
REMARK VINA RESULT:    -3.978      7.999      9.069
REMARK INTER + INTRA:          -4.365
REMARK INTER:                  -4.322
REMARK INTRA:                  -0.044
REMARK UNBOUND:                -0.038
REMARK  Name = 
REMARK  3 active torsions:
REMARK  status: ('A' for Active; 'I' for Inactive)
REMARK    1  A    between atoms: C_1  and  O_2
REMARK    2  A    between atoms: O_2  and  C_3
REMARK    3  A    between atoms: C_8  and  O_9
REMARK                            x       y       z     vdW  Elec       q    Type
REMARK                         _______ _______ _______ _____ _____    ______ ____
ROOT
ATOM      1  C   UNL     1       0.654 -17.875  -5.365  0.00  0.00    +0.000 A 
ATOM      2  C   UNL     1       1.689 -18.132  -4.468  0.00  0.00    +0.000 A 
ATOM      3  C   UNL     1       2.023 -17.182  -3.494  0.00  0.00    +0.000 A 
ATOM      4  C   UNL     1       1.326 -15.975  -3.414  0.00  0.00    +0.000 A 
ATOM      5  C   UNL     1       0.290 -15.711  -4.307  0.00  0.00    +0.000 A 
ATOM      6  C   UNL     1      -0.034 -16.659  -5.270  0.00  0.00    +0.000 A 
ENDROOT
BRANCH   1   8
ATOM      7  C   UNL     1       0.205 -20.100  -6.069  0.00  0.00    +0.000 C 
ATOM      8  O   UNL     1       0.221 -18.709  -6.365  0.00  0.00    +0.000 OA
ENDBRANCH   1   8
BRANCH   6   9
ATOM      9  O   UNL     1      -1.056 -16.376  -6.137  0.00  0.00    +0.000 OA
ATOM     10  H   UNL     1      -1.842 -16.797  -5.739  0.00  0.00    +0.000 HD
ENDBRANCH   6   9
TORSDOF 2
ENDMDL
MODEL 8
REMARK VINA RESULT:    -3.950      8.388      9.678
REMARK INTER + INTRA:          -4.334
REMARK INTER:                  -4.287
REMARK INTRA:                  -0.047
REMARK UNBOUND:                -0.038
REMARK  Name = 
REMARK  3 active torsions:
REMARK  status: ('A' for Active; 'I' for Inactive)
REMARK    1  A    between atoms: C_1  and  O_2
REMARK    2  A    between atoms: O_2  and  C_3
REMARK    3  A    between atoms: C_8  and  O_9
REMARK                            x       y       z     vdW  Elec       q    Type
REMARK                         _______ _______ _______ _____ _____    ______ ____
ROOT
ATOM      1  C   UNL     1       1.006 -16.871  -4.181  0.00  0.00    +0.000 A 
ATOM      2  C   UNL     1       0.252 -16.845  -5.353  0.00  0.00    +0.000 A 
ATOM      3  C   UNL     1      -0.911 -16.067  -5.421  0.00  0.00    +0.000 A 
ATOM      4  C   UNL     1      -1.323 -15.314  -4.320  0.00  0.00    +0.000 A 
ATOM      5  C   UNL     1      -0.575 -15.333  -3.145  0.00  0.00    +0.000 A 
ATOM      6  C   UNL     1       0.576 -16.109  -3.087  0.00  0.00    +0.000 A 
ENDROOT
BRANCH   1   8
ATOM      7  C   UNL     1       2.144 -18.947  -4.381  0.00  0.00    +0.000 C 
ATOM      8  O   UNL     1       2.159 -17.584  -3.973  0.00  0.00    +0.000 OA
ENDBRANCH   1   8
BRANCH   6   9
ATOM      9  O   UNL     1       1.295 -16.112  -1.921  0.00  0.00    +0.000 OA
ATOM     10  H   UNL     1       2.003 -16.767  -2.068  0.00  0.00    +0.000 HD
ENDBRANCH   6   9
TORSDOF 2
ENDMDL
MODEL 9
REMARK VINA RESULT:    -3.936      1.180      2.309
REMARK INTER + INTRA:          -4.319
REMARK INTER:                  -4.267
REMARK INTRA:                  -0.052
REMARK UNBOUND:                -0.038
REMARK  Name = 
REMARK  3 active torsions:
REMARK  status: ('A' for Active; 'I' for Inactive)
REMARK    1  A    between atoms: C_1  and  O_2
REMARK    2  A    between atoms: O_2  and  C_3
REMARK    3  A    between atoms: C_8  and  O_9
REMARK                            x       y       z     vdW  Elec       q    Type
REMARK                         _______ _______ _______ _____ _____    ______ ____
ROOT
ATOM      1  C   UNL     1      -5.853 -18.173 -10.835  0.00  0.00    +0.000 A 
ATOM      2  C   UNL     1      -6.241 -17.588 -12.040  0.00  0.00    +0.000 A 
ATOM      3  C   UNL     1      -7.071 -16.460 -12.034  0.00  0.00    +0.000 A 
ATOM      4  C   UNL     1      -7.515 -15.914 -10.828  0.00  0.00    +0.000 A 
ATOM      5  C   UNL     1      -7.131 -16.493  -9.621  0.00  0.00    +0.000 A 
ATOM      6  C   UNL     1      -6.308 -17.612  -9.636  0.00  0.00    +0.000 A 
ENDROOT
BRANCH   1   8
ATOM      7  C   UNL     1      -3.680 -19.112 -11.041  0.00  0.00    +0.000 C 
ATOM      8  O   UNL     1      -5.049 -19.275 -10.691  0.00  0.00    +0.000 OA
ENDBRANCH   1   8
BRANCH   6   9
ATOM      9  O   UNL     1      -5.944 -18.163  -8.436  0.00  0.00    +0.000 OA
ATOM     10  H   UNL     1      -6.506 -18.956  -8.347  0.00  0.00    +0.000 HD
ENDBRANCH   6   9
TORSDOF 2
ENDMDL
