MODEL 1
REMARK VINA RESULT:    -4.168      0.000      0.000
REMARK INTER + INTRA:          -4.572
REMARK INTER:                  -4.533
REMARK INTRA:                  -0.039
REMARK UNBOUND:                -0.039
REMARK  Name = 
REMARK  3 active torsions:
REMARK  status: ('A' for Active; 'I' for Inactive)
REMARK    1  A    between atoms: C_1  and  O_2
REMARK    2  A    between atoms: O_2  and  C_3
REMARK    3  A    between atoms: C_8  and  O_9
REMARK                            x       y       z     vdW  Elec       q    Type
REMARK                         _______ _______ _______ _____ _____    ______ ____
ROOT
ATOM      1  C   UNL     1      -6.314 -19.314  -8.088  0.00  0.00    +0.000 A 
ATOM      2  C   UNL     1      -7.677 -19.085  -8.267  0.00  0.00    +0.000 A 
ATOM      3  C   UNL     1      -8.110 -17.975  -9.003  0.00  0.00    +0.000 A 
ATOM      4  C   UNL     1      -7.184 -17.091  -9.561  0.00  0.00    +0.000 A 
ATOM      5  C   UNL     1      -5.820 -17.313  -9.387  0.00  0.00    +0.000 A 
ATOM      6  C   UNL     1      -5.400 -18.417  -8.655  0.00  0.00    +0.000 A 
ENDROOT
BRANCH   1   8
ATOM      7  C   UNL     1      -6.588 -21.020  -6.457  0.00  0.00    +0.000 C 
ATOM      8  O   UNL     1      -5.750 -20.354  -7.394  0.00  0.00    +0.000 OA
ENDBRANCH   1   8
BRANCH   6   9
ATOM      9  O   UNL     1      -4.054 -18.614  -8.497  0.00  0.00    +0.000 OA
ATOM     10  H   UNL     1      -3.810 -18.061  -7.730  0.00  0.00    +0.000 HD
ENDBRANCH   6   9
TORSDOF 2
ENDMDL
MODEL 2
REMARK VINA RESULT:    -4.164      2.226      3.067
REMARK INTER + INTRA:          -4.568
REMARK INTER:                  -4.530
REMARK INTRA:                  -0.038
REMARK UNBOUND:                -0.039
REMARK  Name = 
REMARK  3 active torsions:
REMARK  status: ('A' for Active; 'I' for Inactive)
REMARK    1  A    between atoms: C_1  and  O_2
REMARK    2  A    between atoms: O_2  and  C_3
REMARK    3  A    between atoms: C_8  and  O_9
REMARK                            x       y       z     vdW  Elec       q    Type
REMARK                         _______ _______ _______ _____ _____    ______ ____
ROOT
ATOM      1  C   UNL     1      -5.653 -17.912 -10.334  0.00  0.00    +0.000 A 
ATOM      2  C   UNL     1      -6.202 -17.068  -9.369  0.00  0.00    +0.000 A 
ATOM      3  C   UNL     1      -7.129 -16.088  -9.743  0.00  0.00    +0.000 A 
ATOM      4  C   UNL     1      -7.510 -15.947 -11.079  0.00  0.00    +0.000 A 
ATOM      5  C   UNL     1      -6.967 -16.787 -12.048  0.00  0.00    +0.000 A 
ATOM      6  C   UNL     1      -6.047 -17.756 -11.668  0.00  0.00    +0.000 A 
ENDROOT
BRANCH   1   8
ATOM      7  C   UNL     1      -4.530 -19.292  -8.758  0.00  0.00    +0.000 C 
ATOM      8  O   UNL     1      -4.738 -18.910 -10.113  0.00  0.00    +0.000 OA
ENDBRANCH   1   8
BRANCH   6   9
ATOM      9  O   UNL     1      -5.526 -18.569 -12.639  0.00  0.00    +0.000 OA
ATOM     10  H   UNL     1      -4.643 -18.197 -12.827  0.00  0.00    +0.000 HD
ENDBRANCH   6   9
TORSDOF 2
ENDMDL
MODEL 3
REMARK VINA RESULT:    -4.079      3.079      4.043
REMARK INTER + INTRA:          -4.476
REMARK INTER:                  -4.436
REMARK INTRA:                  -0.040
REMARK UNBOUND:                -0.039
REMARK  Name = 
REMARK  3 active torsions:
REMARK  status: ('A' for Active; 'I' for Inactive)
REMARK    1  A    between atoms: C_1  and  O_2
REMARK    2  A    between atoms: O_2  and  C_3
REMARK    3  A    between atoms: C_8  and  O_9
REMARK                            x       y       z     vdW  Elec       q    Type
REMARK                         _______ _______ _______ _____ _____    ______ ____
ROOT
ATOM      1  C   UNL     1      -5.731 -17.929 -11.368  0.00  0.00    +0.000 A 
ATOM      2  C   UNL     1      -5.600 -17.870  -9.981  0.00  0.00    +0.000 A 
ATOM      3  C   UNL     1      -6.354 -16.947  -9.245  0.00  0.00    +0.000 A 
ATOM      4  C   UNL     1      -7.239 -16.081  -9.891  0.00  0.00    +0.000 A 
ATOM      5  C   UNL     1      -7.376 -16.134 -11.276  0.00  0.00    +0.000 A 
ATOM      6  C   UNL     1      -6.624 -17.053 -11.998  0.00  0.00    +0.000 A 
ENDROOT
BRANCH   1   8
ATOM      7  C   UNL     1      -3.817 -19.286 -11.740  0.00  0.00    +0.000 C 
ATOM      8  O   UNL     1      -5.059 -18.777 -12.210  0.00  0.00    +0.000 OA
ENDBRANCH   1   8
BRANCH   6   9
ATOM      9  O   UNL     1      -6.776 -17.086 -13.358  0.00  0.00    +0.000 OA
ATOM     10  H   UNL     1      -7.490 -16.447 -13.544  0.00  0.00    +0.000 HD
ENDBRANCH   6   9
TORSDOF 2
ENDMDL
MODEL 4
REMARK VINA RESULT:    -4.047      2.632      4.049
REMARK INTER + INTRA:          -4.441
REMARK INTER:                  -4.402
REMARK INTRA:                  -0.039
REMARK UNBOUND:                -0.039
REMARK  Name = 
REMARK  3 active torsions:
REMARK  status: ('A' for Active; 'I' for Inactive)
REMARK    1  A    between atoms: C_1  and  O_2
REMARK    2  A    between atoms: O_2  and  C_3
REMARK    3  A    between atoms: C_8  and  O_9
REMARK                            x       y       z     vdW  Elec       q    Type
REMARK                         _______ _______ _______ _____ _____    ______ ____
ROOT
ATOM      1  C   UNL     1      -6.038 -17.768 -11.742  0.00  0.00    +0.000 A 
ATOM      2  C   UNL     1      -6.993 -16.812 -12.086  0.00  0.00    +0.000 A 
ATOM      3  C   UNL     1      -7.543 -15.986 -11.098  0.00  0.00    +0.000 A 
ATOM      4  C   UNL     1      -7.144 -16.112  -9.766  0.00  0.00    +0.000 A 
ATOM      5  C   UNL     1      -6.189 -17.064  -9.415  0.00  0.00    +0.000 A 
ATOM      6  C   UNL     1      -5.649 -17.879 -10.401  0.00  0.00    +0.000 A 
ENDROOT
BRANCH   1   8
ATOM      7  C   UNL     1      -5.467 -18.312 -13.984  0.00  0.00    +0.000 C 
ATOM      8  O   UNL     1      -5.417 -18.640 -12.600  0.00  0.00    +0.000 OA
ENDBRANCH   1   8
BRANCH   6   9
ATOM      9  O   UNL     1      -4.713 -18.808 -10.031  0.00  0.00    +0.000 OA
ATOM     10  H   UNL     1      -3.901 -18.545 -10.507  0.00  0.00    +0.000 HD
ENDBRANCH   6   9
TORSDOF 2
ENDMDL
MODEL 5
REMARK VINA RESULT:    -4.046      7.765      8.965
REMARK INTER + INTRA:          -4.439
REMARK INTER:                  -4.413
REMARK INTRA:                  -0.026
REMARK UNBOUND:                -0.039
REMARK  Name = 
REMARK  3 active torsions:
REMARK  status: ('A' for Active; 'I' for Inactive)
REMARK    1  A    between atoms: C_1  and  O_2
REMARK    2  A    between atoms: O_2  and  C_3
REMARK    3  A    between atoms: C_8  and  O_9
REMARK                            x       y       z     vdW  Elec       q    Type
REMARK                         _______ _______ _______ _____ _____    ______ ____
ROOT
ATOM      1  C   UNL     1       0.430 -16.245  -4.587  0.00  0.00    +0.000 A 
ATOM      2  C   UNL     1       0.057 -17.210  -5.521  0.00  0.00    +0.000 A 
ATOM      3  C   UNL     1       0.742 -18.430  -5.579  0.00  0.00    +0.000 A 
ATOM      4  C   UNL     1       1.801 -18.689  -4.706  0.00  0.00    +0.000 A 
ATOM      5  C   UNL     1       2.179 -17.729  -3.769  0.00  0.00    +0.000 A 
ATOM      6  C   UNL     1       1.494 -16.522  -3.720  0.00  0.00    +0.000 A 
ENDROOT
BRANCH   1   8
ATOM      7  C   UNL     1      -1.372 -14.979  -3.695  0.00  0.00    +0.000 C 
ATOM      8  O   UNL     1      -0.149 -15.012  -4.420  0.00  0.00    +0.000 OA
ENDBRANCH   1   8
BRANCH   6   9
ATOM      9  O   UNL     1       1.884 -15.595  -2.791  0.00  0.00    +0.000 OA
ATOM     10  H   UNL     1       1.406 -14.780  -3.037  0.00  0.00    +0.000 HD
ENDBRANCH   6   9
TORSDOF 2
ENDMDL
MODEL 6
REMARK VINA RESULT:    -3.996      1.243      2.403
REMARK INTER + INTRA:          -4.385
REMARK INTER:                  -4.343
REMARK INTRA:                  -0.042
REMARK UNBOUND:                -0.039
REMARK  Name = 
REMARK  3 active torsions:
REMARK  status: ('A' for Active; 'I' for Inactive)
REMARK    1  A    between atoms: C_1  and  O_2
REMARK    2  A    between atoms: O_2  and  C_3
REMARK    3  A    between atoms: C_8  and  O_9
REMARK                            x       y       z     vdW  Elec       q    Type
REMARK                         _______ _______ _______ _____ _____    ______ ____
ROOT
ATOM      1  C   UNL     1      -6.096 -19.553  -7.970  0.00  0.00    +0.000 A 
ATOM      2  C   UNL     1      -5.297 -18.681  -8.707  0.00  0.00    +0.000 A 
ATOM      3  C   UNL     1      -5.887 -17.645  -9.443  0.00  0.00    +0.000 A 
ATOM      4  C   UNL     1      -7.273 -17.479  -9.445  0.00  0.00    +0.000 A 
ATOM      5  C   UNL     1      -8.078 -18.346  -8.711  0.00  0.00    +0.000 A 
ATOM      6  C   UNL     1      -7.485 -19.371  -7.984  0.00  0.00    +0.000 A 
ENDROOT
BRANCH   1   8
ATOM      7  C   UNL     1      -4.493 -21.281  -7.668  0.00  0.00    +0.000 C 
ATOM      8  O   UNL     1      -5.658 -20.607  -7.207  0.00  0.00    +0.000 OA
ENDBRANCH   1   8
BRANCH   6   9
ATOM      9  O   UNL     1      -8.296 -20.211  -7.270  0.00  0.00    +0.000 OA
ATOM     10  H   UNL     1      -8.974 -19.628  -6.877  0.00  0.00    +0.000 HD
ENDBRANCH   6   9
TORSDOF 2
ENDMDL
MODEL 7
REMARK VINA RESULT:    -3.987      7.172      8.312
REMARK INTER + INTRA:          -4.375
REMARK INTER:                  -4.331
REMARK INTRA:                  -0.044
REMARK UNBOUND:                -0.039
REMARK  Name = 
REMARK  3 active torsions:
REMARK  status: ('A' for Active; 'I' for Inactive)
REMARK    1  A    between atoms: C_1  and  O_2
REMARK    2  A    between atoms: O_2  and  C_3
REMARK    3  A    between atoms: C_8  and  O_9
REMARK                            x       y       z     vdW  Elec       q    Type
REMARK                         _______ _______ _______ _____ _____    ______ ____
ROOT
ATOM      1  C   UNL     1       0.650 -17.862  -5.369  0.00  0.00    +0.000 A 
ATOM      2  C   UNL     1       1.695 -18.125  -4.486  0.00  0.00    +0.000 A 
ATOM      3  C   UNL     1       2.039 -17.182  -3.508  0.00  0.00    +0.000 A 
ATOM      4  C   UNL     1       1.341 -15.977  -3.411  0.00  0.00    +0.000 A 
ATOM      5  C   UNL     1       0.295 -15.707  -4.290  0.00  0.00    +0.000 A 
ATOM      6  C   UNL     1      -0.039 -16.647  -5.257  0.00  0.00    +0.000 A 
ENDROOT
BRANCH   1   8
ATOM      7  C   UNL     1       0.178 -20.080  -6.079  0.00  0.00    +0.000 C 
ATOM      8  O   UNL     1       0.207 -18.688  -6.371  0.00  0.00    +0.000 OA
ENDBRANCH   1   8
BRANCH   6   9
ATOM      9  O   UNL     1      -1.071 -16.360  -6.109  0.00  0.00    +0.000 OA
ATOM     10  H   UNL     1      -1.770 -15.990  -5.537  0.00  0.00    +0.000 HD
ENDBRANCH   6   9
TORSDOF 2
ENDMDL
MODEL 8
REMARK VINA RESULT:    -3.935      7.739      8.640
REMARK INTER + INTRA:          -4.319
REMARK INTER:                  -4.275
REMARK INTRA:                  -0.044
REMARK UNBOUND:                -0.039
REMARK  Name = 
REMARK  3 active torsions:
REMARK  status: ('A' for Active; 'I' for Inactive)
REMARK    1  A    between atoms: C_1  and  O_2
REMARK    2  A    between atoms: O_2  and  C_3
REMARK    3  A    between atoms: C_8  and  O_9
REMARK                            x       y       z     vdW  Elec       q    Type
REMARK                         _______ _______ _______ _____ _____    ______ ____
ROOT
ATOM      1  C   UNL     1       1.015 -16.928  -4.147  0.00  0.00    +0.000 A 
ATOM      2  C   UNL     1       0.293 -16.925  -5.340  0.00  0.00    +0.000 A 
ATOM      3  C   UNL     1      -0.854 -16.131  -5.462  0.00  0.00    +0.000 A 
ATOM      4  C   UNL     1      -1.283 -15.339  -4.396  0.00  0.00    +0.000 A 
ATOM      5  C   UNL     1      -0.567 -15.335  -3.201  0.00  0.00    +0.000 A 
ATOM      6  C   UNL     1       0.569 -16.126  -3.089  0.00  0.00    +0.000 A 
ENDROOT
BRANCH   1   8
ATOM      7  C   UNL     1       2.184 -18.982  -4.394  0.00  0.00    +0.000 C 
ATOM      8  O   UNL     1       2.150 -17.653  -3.887  0.00  0.00    +0.000 OA
ENDBRANCH   1   8
BRANCH   6   9
ATOM      9  O   UNL     1       1.256 -16.106  -1.904  0.00  0.00    +0.000 OA
ATOM     10  H   UNL     1       0.631 -16.471  -1.248  0.00  0.00    +0.000 HD
ENDBRANCH   6   9
TORSDOF 2
ENDMDL
MODEL 9
REMARK VINA RESULT:    -3.909      2.710      3.303
REMARK INTER + INTRA:          -4.290
REMARK INTER:                  -4.238
REMARK INTRA:                  -0.052
REMARK UNBOUND:                -0.039
REMARK  Name = 
REMARK  3 active torsions:
REMARK  status: ('A' for Active; 'I' for Inactive)
REMARK    1  A    between atoms: C_1  and  O_2
REMARK    2  A    between atoms: O_2  and  C_3
REMARK    3  A    between atoms: C_8  and  O_9
REMARK                            x       y       z     vdW  Elec       q    Type
REMARK                         _______ _______ _______ _____ _____    ______ ____
ROOT
ATOM      1  C   UNL     1      -7.197 -18.478 -10.442  0.00  0.00    +0.000 A 
ATOM      2  C   UNL     1      -6.751 -17.796 -11.572  0.00  0.00    +0.000 A 
ATOM      3  C   UNL     1      -6.955 -16.414 -11.682  0.00  0.00    +0.000 A 
ATOM      4  C   UNL     1      -7.605 -15.712 -10.665  0.00  0.00    +0.000 A 
ATOM      5  C   UNL     1      -8.053 -16.388  -9.532  0.00  0.00    +0.000 A 
ATOM      6  C   UNL     1      -7.846 -17.758  -9.432  0.00  0.00    +0.000 A 
ENDROOT
BRANCH   1   8
ATOM      7  C   UNL     1      -7.822 -20.692 -11.036  0.00  0.00    +0.000 C 
ATOM      8  O   UNL     1      -7.066 -19.823 -10.202  0.00  0.00    +0.000 OA
ENDBRANCH   1   8
BRANCH   6   9
ATOM      9  O   UNL     1      -8.296 -18.399  -8.309  0.00  0.00    +0.000 OA
ATOM     10  H   UNL     1      -7.746 -18.046  -7.584  0.00  0.00    +0.000 HD
ENDBRANCH   6   9
TORSDOF 2
ENDMDL
