MODEL 1
REMARK VINA RESULT:    -4.217      0.000      0.000
REMARK INTER + INTRA:          -4.638
REMARK INTER:                  -4.587
REMARK INTRA:                  -0.050
REMARK UNBOUND:                -0.050
REMARK  Name = 
REMARK  3 active torsions:
REMARK  status: ('A' for Active; 'I' for Inactive)
REMARK    1  A    between atoms: C_1  and  O_2
REMARK    2  A    between atoms: O_2  and  C_3
REMARK    3  A    between atoms: C_8  and  O_9
REMARK                            x       y       z     vdW  Elec       q    Type
REMARK                         _______ _______ _______ _____ _____    ______ ____
ROOT
ATOM      1  C   UNL     1      10.781  -4.886  12.538  0.00  0.00    +0.000 A 
ATOM      2  C   UNL     1      11.133  -6.220  12.342  0.00  0.00    +0.000 A 
ATOM      3  C   UNL     1      10.163  -7.224  12.456  0.00  0.00    +0.000 A 
ATOM      4  C   UNL     1       8.841  -6.899  12.766  0.00  0.00    +0.000 A 
ATOM      5  C   UNL     1       8.481  -5.568  12.963  0.00  0.00    +0.000 A 
ATOM      6  C   UNL     1       9.450  -4.579  12.848  0.00  0.00    +0.000 A 
ENDROOT
BRANCH   1   8
ATOM      7  C   UNL     1      12.081  -3.451  11.161  0.00  0.00    +0.000 C 
ATOM      8  O   UNL     1      11.622  -3.805  12.460  0.00  0.00    +0.000 OA
ENDBRANCH   1   8
BRANCH   6   9
ATOM      9  O   UNL     1       9.072  -3.278  13.046  0.00  0.00    +0.000 OA
ATOM     10  H   UNL     1       9.883  -2.757  12.892  0.00  0.00    +0.000 HD
ENDBRANCH   6   9
TORSDOF 2
ENDMDL
MODEL 2
REMARK VINA RESULT:    -4.192     14.864     16.374
REMARK INTER + INTRA:          -4.610
REMARK INTER:                  -4.572
REMARK INTRA:                  -0.038
REMARK UNBOUND:                -0.050
REMARK  Name = 
REMARK  3 active torsions:
REMARK  status: ('A' for Active; 'I' for Inactive)
REMARK    1  A    between atoms: C_1  and  O_2
REMARK    2  A    between atoms: O_2  and  C_3
REMARK    3  A    between atoms: C_8  and  O_9
REMARK                            x       y       z     vdW  Elec       q    Type
REMARK                         _______ _______ _______ _____ _____    ______ ____
ROOT
ATOM      1  C   UNL     1      22.000  -8.754   2.604  0.00  0.00    +0.000 A 
ATOM      2  C   UNL     1      21.208  -9.884   2.800  0.00  0.00    +0.000 A 
ATOM      3  C   UNL     1      20.886 -10.710   1.716  0.00  0.00    +0.000 A 
ATOM      4  C   UNL     1      21.351 -10.409   0.435  0.00  0.00    +0.000 A 
ATOM      5  C   UNL     1      22.144  -9.282   0.230  0.00  0.00    +0.000 A 
ATOM      6  C   UNL     1      22.458  -8.468   1.312  0.00  0.00    +0.000 A 
ENDROOT
BRANCH   1   8
ATOM      7  C   UNL     1      21.673  -7.896   4.796  0.00  0.00    +0.000 C 
ATOM      8  O   UNL     1      22.391  -7.860   3.568  0.00  0.00    +0.000 OA
ENDBRANCH   1   8
BRANCH   6   9
ATOM      9  O   UNL     1      23.238  -7.366   1.086  0.00  0.00    +0.000 OA
ATOM     10  H   UNL     1      24.127  -7.622   1.397  0.00  0.00    +0.000 HD
ENDBRANCH   6   9
TORSDOF 2
ENDMDL
MODEL 3
REMARK VINA RESULT:    -4.141      1.560      2.330
REMARK INTER + INTRA:          -4.554
REMARK INTER:                  -4.502
REMARK INTRA:                  -0.053
REMARK UNBOUND:                -0.050
REMARK  Name = 
REMARK  3 active torsions:
REMARK  status: ('A' for Active; 'I' for Inactive)
REMARK    1  A    between atoms: C_1  and  O_2
REMARK    2  A    between atoms: O_2  and  C_3
REMARK    3  A    between atoms: C_8  and  O_9
REMARK                            x       y       z     vdW  Elec       q    Type
REMARK                         _______ _______ _______ _____ _____    ______ ____
ROOT
ATOM      1  C   UNL     1      10.490  -4.127  11.728  0.00  0.00    +0.000 A 
ATOM      2  C   UNL     1       9.838  -3.676  12.874  0.00  0.00    +0.000 A 
ATOM      3  C   UNL     1       8.855  -4.469  13.478  0.00  0.00    +0.000 A 
ATOM      4  C   UNL     1       8.520  -5.713  12.940  0.00  0.00    +0.000 A 
ATOM      5  C   UNL     1       9.167  -6.171  11.794  0.00  0.00    +0.000 A 
ATOM      6  C   UNL     1      10.141  -5.377  11.202  0.00  0.00    +0.000 A 
ENDROOT
BRANCH   1   8
ATOM      7  C   UNL     1      12.686  -3.218  11.727  0.00  0.00    +0.000 C 
ATOM      8  O   UNL     1      11.467  -3.459  11.034  0.00  0.00    +0.000 OA
ENDBRANCH   1   8
BRANCH   6   9
ATOM      9  O   UNL     1      10.763  -5.848  10.077  0.00  0.00    +0.000 OA
ATOM     10  H   UNL     1      10.417  -5.295   9.351  0.00  0.00    +0.000 HD
ENDBRANCH   6   9
TORSDOF 2
ENDMDL
MODEL 4
REMARK VINA RESULT:    -4.119      1.953      3.644
REMARK INTER + INTRA:          -4.531
REMARK INTER:                  -4.486
REMARK INTRA:                  -0.045
REMARK UNBOUND:                -0.050
REMARK  Name = 
REMARK  3 active torsions:
REMARK  status: ('A' for Active; 'I' for Inactive)
REMARK    1  A    between atoms: C_1  and  O_2
REMARK    2  A    between atoms: O_2  and  C_3
REMARK    3  A    between atoms: C_8  and  O_9
REMARK                            x       y       z     vdW  Elec       q    Type
REMARK                         _______ _______ _______ _____ _____    ______ ____
ROOT
ATOM      1  C   UNL     1      10.475  -5.240  11.503  0.00  0.00    +0.000 A 
ATOM      2  C   UNL     1      11.129  -5.318  12.732  0.00  0.00    +0.000 A 
ATOM      3  C   UNL     1      12.232  -4.494  12.992  0.00  0.00    +0.000 A 
ATOM      4  C   UNL     1      12.684  -3.592  12.027  0.00  0.00    +0.000 A 
ATOM      5  C   UNL     1      12.035  -3.507  10.797  0.00  0.00    +0.000 A 
ATOM      6  C   UNL     1      10.943  -4.329  10.548  0.00  0.00    +0.000 A 
ENDROOT
BRANCH   1   8
ATOM      7  C   UNL     1       8.361  -6.158  12.081  0.00  0.00    +0.000 C 
ATOM      8  O   UNL     1       9.389  -5.982  11.114  0.00  0.00    +0.000 OA
ENDBRANCH   1   8
BRANCH   6   9
ATOM      9  O   UNL     1      10.322  -4.228   9.332  0.00  0.00    +0.000 OA
ATOM     10  H   UNL     1       9.386  -4.047   9.545  0.00  0.00    +0.000 HD
ENDBRANCH   6   9
TORSDOF 2
ENDMDL
MODEL 5
REMARK VINA RESULT:    -4.048     15.396     16.465
REMARK INTER + INTRA:          -4.454
REMARK INTER:                  -4.412
REMARK INTRA:                  -0.042
REMARK UNBOUND:                -0.050
REMARK  Name = 
REMARK  3 active torsions:
REMARK  status: ('A' for Active; 'I' for Inactive)
REMARK    1  A    between atoms: C_1  and  O_2
REMARK    2  A    between atoms: O_2  and  C_3
REMARK    3  A    between atoms: C_8  and  O_9
REMARK                            x       y       z     vdW  Elec       q    Type
REMARK                         _______ _______ _______ _____ _____    ______ ____
ROOT
ATOM      1  C   UNL     1      21.740  -9.400   1.491  0.00  0.00    +0.000 A 
ATOM      2  C   UNL     1      21.005 -10.227   2.340  0.00  0.00    +0.000 A 
ATOM      3  C   UNL     1      20.992  -9.979   3.719  0.00  0.00    +0.000 A 
ATOM      4  C   UNL     1      21.711  -8.908   4.252  0.00  0.00    +0.000 A 
ATOM      5  C   UNL     1      22.447  -8.077   3.410  0.00  0.00    +0.000 A 
ATOM      6  C   UNL     1      22.455  -8.331   2.045  0.00  0.00    +0.000 A 
ENDROOT
BRANCH   1   8
ATOM      7  C   UNL     1      21.780 -10.845  -0.395  0.00  0.00    +0.000 C 
ATOM      8  O   UNL     1      21.844  -9.524   0.129  0.00  0.00    +0.000 OA
ENDBRANCH   1   8
BRANCH   6   9
ATOM      9  O   UNL     1      23.186  -7.501   1.237  0.00  0.00    +0.000 OA
ATOM     10  H   UNL     1      22.938  -7.757   0.328  0.00  0.00    +0.000 HD
ENDBRANCH   6   9
TORSDOF 2
ENDMDL
MODEL 6
REMARK VINA RESULT:    -4.019      3.696      6.288
REMARK INTER + INTRA:          -4.422
REMARK INTER:                  -4.385
REMARK INTRA:                  -0.037
REMARK UNBOUND:                -0.050
REMARK  Name = 
REMARK  3 active torsions:
REMARK  status: ('A' for Active; 'I' for Inactive)
REMARK    1  A    between atoms: C_1  and  O_2
REMARK    2  A    between atoms: O_2  and  C_3
REMARK    3  A    between atoms: C_8  and  O_9
REMARK                            x       y       z     vdW  Elec       q    Type
REMARK                         _______ _______ _______ _____ _____    ______ ____
ROOT
ATOM      1  C   UNL     1      14.128  -2.499  10.892  0.00  0.00    +0.000 A 
ATOM      2  C   UNL     1      13.911  -3.499   9.945  0.00  0.00    +0.000 A 
ATOM      3  C   UNL     1      14.627  -3.490   8.741  0.00  0.00    +0.000 A 
ATOM      4  C   UNL     1      15.559  -2.484   8.479  0.00  0.00    +0.000 A 
ATOM      5  C   UNL     1      15.782  -1.482   9.421  0.00  0.00    +0.000 A 
ATOM      6  C   UNL     1      15.067  -1.499  10.612  0.00  0.00    +0.000 A 
ENDROOT
BRANCH   1   8
ATOM      7  C   UNL     1      12.435  -3.288  12.360  0.00  0.00    +0.000 C 
ATOM      8  O   UNL     1      13.502  -2.383  12.107  0.00  0.00    +0.000 OA
ENDBRANCH   1   8
BRANCH   6   9
ATOM      9  O   UNL     1      15.304  -0.503  11.522  0.00  0.00    +0.000 OA
ATOM     10  H   UNL     1      14.628  -0.633  12.214  0.00  0.00    +0.000 HD
ENDBRANCH   6   9
TORSDOF 2
ENDMDL
MODEL 7
REMARK VINA RESULT:    -4.019      2.721      3.472
REMARK INTER + INTRA:          -4.422
REMARK INTER:                  -4.375
REMARK INTRA:                  -0.047
REMARK UNBOUND:                -0.050
REMARK  Name = 
REMARK  3 active torsions:
REMARK  status: ('A' for Active; 'I' for Inactive)
REMARK    1  A    between atoms: C_1  and  O_2
REMARK    2  A    between atoms: O_2  and  C_3
REMARK    3  A    between atoms: C_8  and  O_9
REMARK                            x       y       z     vdW  Elec       q    Type
REMARK                         _______ _______ _______ _____ _____    ______ ____
ROOT
ATOM      1  C   UNL     1      12.745  -3.498  11.020  0.00  0.00    +0.000 A 
ATOM      2  C   UNL     1      12.709  -3.121  12.361  0.00  0.00    +0.000 A 
ATOM      3  C   UNL     1      11.590  -3.431  13.145  0.00  0.00    +0.000 A 
ATOM      4  C   UNL     1      10.506  -4.116  12.592  0.00  0.00    +0.000 A 
ATOM      5  C   UNL     1      10.536  -4.496  11.252  0.00  0.00    +0.000 A 
ATOM      6  C   UNL     1      11.649  -4.184  10.483  0.00  0.00    +0.000 A 
ENDROOT
BRANCH   1   8
ATOM      7  C   UNL     1      14.305  -1.943  10.126  0.00  0.00    +0.000 C 
ATOM      8  O   UNL     1      13.769  -3.261  10.138  0.00  0.00    +0.000 OA
ENDBRANCH   1   8
BRANCH   6   9
ATOM      9  O   UNL     1      11.655  -4.569   9.168  0.00  0.00    +0.000 OA
ATOM     10  H   UNL     1      10.849  -5.110   9.065  0.00  0.00    +0.000 HD
ENDBRANCH   6   9
TORSDOF 2
ENDMDL
MODEL 8
REMARK VINA RESULT:    -3.933      4.833      7.758
REMARK INTER + INTRA:          -4.328
REMARK INTER:                  -4.285
REMARK INTRA:                  -0.043
REMARK UNBOUND:                -0.050
REMARK  Name = 
REMARK  3 active torsions:
REMARK  status: ('A' for Active; 'I' for Inactive)
REMARK    1  A    between atoms: C_1  and  O_2
REMARK    2  A    between atoms: O_2  and  C_3
REMARK    3  A    between atoms: C_8  and  O_9
REMARK                            x       y       z     vdW  Elec       q    Type
REMARK                         _______ _______ _______ _____ _____    ______ ____
ROOT
ATOM      1  C   UNL     1      15.343  -2.998   9.634  0.00  0.00    +0.000 A 
ATOM      2  C   UNL     1      15.545  -1.710  10.127  0.00  0.00    +0.000 A 
ATOM      3  C   UNL     1      16.828  -1.148  10.111  0.00  0.00    +0.000 A 
ATOM      4  C   UNL     1      17.911  -1.870   9.605  0.00  0.00    +0.000 A 
ATOM      5  C   UNL     1      17.716  -3.158   9.110  0.00  0.00    +0.000 A 
ATOM      6  C   UNL     1      16.440  -3.707   9.130  0.00  0.00    +0.000 A 
ENDROOT
BRANCH   1   8
ATOM      7  C   UNL     1      13.261  -3.464  10.681  0.00  0.00    +0.000 C 
ATOM      8  O   UNL     1      14.148  -3.671   9.588  0.00  0.00    +0.000 OA
ENDBRANCH   1   8
BRANCH   6   9
ATOM      9  O   UNL     1      16.274  -4.974   8.638  0.00  0.00    +0.000 OA
ATOM     10  H   UNL     1      17.019  -5.484   9.009  0.00  0.00    +0.000 HD
ENDBRANCH   6   9
TORSDOF 2
ENDMDL
MODEL 9
REMARK VINA RESULT:    -3.825     16.857     17.590
REMARK INTER + INTRA:          -4.211
REMARK INTER:                  -4.158
REMARK INTRA:                  -0.052
REMARK UNBOUND:                -0.050
REMARK  Name = 
REMARK  3 active torsions:
REMARK  status: ('A' for Active; 'I' for Inactive)
REMARK    1  A    between atoms: C_1  and  O_2
REMARK    2  A    between atoms: O_2  and  C_3
REMARK    3  A    between atoms: C_8  and  O_9
REMARK                            x       y       z     vdW  Elec       q    Type
REMARK                         _______ _______ _______ _____ _____    ______ ____
ROOT
ATOM      1  C   UNL     1      23.516  -9.942   1.989  0.00  0.00    +0.000 A 
ATOM      2  C   UNL     1      23.560 -11.225   1.446  0.00  0.00    +0.000 A 
ATOM      3  C   UNL     1      22.730 -11.557   0.367  0.00  0.00    +0.000 A 
ATOM      4  C   UNL     1      21.855 -10.612  -0.170  0.00  0.00    +0.000 A 
ATOM      5  C   UNL     1      21.806  -9.327   0.367  0.00  0.00    +0.000 A 
ATOM      6  C   UNL     1      22.632  -9.007   1.436  0.00  0.00    +0.000 A 
ENDROOT
BRANCH   1   8
ATOM      7  C   UNL     1      24.044 -10.102   4.300  0.00  0.00    +0.000 C 
ATOM      8  O   UNL     1      24.266  -9.480   3.040  0.00  0.00    +0.000 OA
ENDBRANCH   1   8
BRANCH   6   9
ATOM      9  O   UNL     1      22.565  -7.738   1.948  0.00  0.00    +0.000 OA
ATOM     10  H   UNL     1      21.613  -7.520   1.948  0.00  0.00    +0.000 HD
ENDBRANCH   6   9
TORSDOF 2
ENDMDL
