MODEL 1
REMARK VINA RESULT:    -4.222      0.000      0.000
REMARK INTER + INTRA:          -4.643
REMARK INTER:                  -4.592
REMARK INTRA:                  -0.051
REMARK UNBOUND:                -0.051
REMARK  Name = 
REMARK  3 active torsions:
REMARK  status: ('A' for Active; 'I' for Inactive)
REMARK    1  A    between atoms: C_1  and  O_2
REMARK    2  A    between atoms: O_2  and  C_3
REMARK    3  A    between atoms: C_8  and  O_9
REMARK                            x       y       z     vdW  Elec       q    Type
REMARK                         _______ _______ _______ _____ _____    ______ ____
ROOT
ATOM      1  C   UNL     1      10.821  -4.855  12.539  0.00  0.00    +0.000 A 
ATOM      2  C   UNL     1      11.191  -6.188  12.367  0.00  0.00    +0.000 A 
ATOM      3  C   UNL     1      10.235  -7.202  12.501  0.00  0.00    +0.000 A 
ATOM      4  C   UNL     1       8.909  -6.889  12.807  0.00  0.00    +0.000 A 
ATOM      5  C   UNL     1       8.532  -5.559  12.980  0.00  0.00    +0.000 A 
ATOM      6  C   UNL     1       9.487  -4.560  12.845  0.00  0.00    +0.000 A 
ENDROOT
BRANCH   1   8
ATOM      7  C   UNL     1      12.105  -3.432  11.133  0.00  0.00    +0.000 C 
ATOM      8  O   UNL     1      11.648  -3.764  12.439  0.00  0.00    +0.000 OA
ENDBRANCH   1   8
BRANCH   6   9
ATOM      9  O   UNL     1       9.092  -3.260  13.020  0.00  0.00    +0.000 OA
ATOM     10  H   UNL     1       8.554  -3.056  12.231  0.00  0.00    +0.000 HD
ENDBRANCH   6   9
TORSDOF 2
ENDMDL
MODEL 2
REMARK VINA RESULT:    -4.181     14.876     16.390
REMARK INTER + INTRA:          -4.599
REMARK INTER:                  -4.561
REMARK INTRA:                  -0.038
REMARK UNBOUND:                -0.051
REMARK  Name = 
REMARK  3 active torsions:
REMARK  status: ('A' for Active; 'I' for Inactive)
REMARK    1  A    between atoms: C_1  and  O_2
REMARK    2  A    between atoms: O_2  and  C_3
REMARK    3  A    between atoms: C_8  and  O_9
REMARK                            x       y       z     vdW  Elec       q    Type
REMARK                         _______ _______ _______ _____ _____    ______ ____
ROOT
ATOM      1  C   UNL     1      22.016  -8.754   2.560  0.00  0.00    +0.000 A 
ATOM      2  C   UNL     1      21.244  -9.897   2.762  0.00  0.00    +0.000 A 
ATOM      3  C   UNL     1      20.925 -10.726   1.679  0.00  0.00    +0.000 A 
ATOM      4  C   UNL     1      21.375 -10.417   0.394  0.00  0.00    +0.000 A 
ATOM      5  C   UNL     1      22.148  -9.278   0.184  0.00  0.00    +0.000 A 
ATOM      6  C   UNL     1      22.459  -8.460   1.264  0.00  0.00    +0.000 A 
ENDROOT
BRANCH   1   8
ATOM      7  C   UNL     1      21.678  -7.886   4.746  0.00  0.00    +0.000 C 
ATOM      8  O   UNL     1      22.402  -7.855   3.522  0.00  0.00    +0.000 OA
ENDBRANCH   1   8
BRANCH   6   9
ATOM      9  O   UNL     1      23.220  -7.346   1.033  0.00  0.00    +0.000 OA
ATOM     10  H   UNL     1      24.129  -7.683   0.927  0.00  0.00    +0.000 HD
ENDBRANCH   6   9
TORSDOF 2
ENDMDL
MODEL 3
REMARK VINA RESULT:    -4.137      1.956      3.634
REMARK INTER + INTRA:          -4.551
REMARK INTER:                  -4.506
REMARK INTRA:                  -0.045
REMARK UNBOUND:                -0.051
REMARK  Name = 
REMARK  3 active torsions:
REMARK  status: ('A' for Active; 'I' for Inactive)
REMARK    1  A    between atoms: C_1  and  O_2
REMARK    2  A    between atoms: O_2  and  C_3
REMARK    3  A    between atoms: C_8  and  O_9
REMARK                            x       y       z     vdW  Elec       q    Type
REMARK                         _______ _______ _______ _____ _____    ______ ____
ROOT
ATOM      1  C   UNL     1      10.460  -5.192  11.503  0.00  0.00    +0.000 A 
ATOM      2  C   UNL     1      11.094  -5.248  12.743  0.00  0.00    +0.000 A 
ATOM      3  C   UNL     1      12.173  -4.398  13.016  0.00  0.00    +0.000 A 
ATOM      4  C   UNL     1      12.620  -3.491  12.054  0.00  0.00    +0.000 A 
ATOM      5  C   UNL     1      11.991  -3.429  10.812  0.00  0.00    +0.000 A 
ATOM      6  C   UNL     1      10.923  -4.277  10.550  0.00  0.00    +0.000 A 
ENDROOT
BRANCH   1   8
ATOM      7  C   UNL     1       8.375  -6.186  12.063  0.00  0.00    +0.000 C 
ATOM      8  O   UNL     1       9.398  -5.962  11.100  0.00  0.00    +0.000 OA
ENDBRANCH   1   8
BRANCH   6   9
ATOM      9  O   UNL     1      10.320  -4.197   9.323  0.00  0.00    +0.000 OA
ATOM     10  H   UNL     1      11.058  -4.198   8.684  0.00  0.00    +0.000 HD
ENDBRANCH   6   9
TORSDOF 2
ENDMDL
MODEL 4
REMARK VINA RESULT:    -4.075     15.306     16.416
REMARK INTER + INTRA:          -4.483
REMARK INTER:                  -4.442
REMARK INTRA:                  -0.042
REMARK UNBOUND:                -0.051
REMARK  Name = 
REMARK  3 active torsions:
REMARK  status: ('A' for Active; 'I' for Inactive)
REMARK    1  A    between atoms: C_1  and  O_2
REMARK    2  A    between atoms: O_2  and  C_3
REMARK    3  A    between atoms: C_8  and  O_9
REMARK                            x       y       z     vdW  Elec       q    Type
REMARK                         _______ _______ _______ _____ _____    ______ ____
ROOT
ATOM      1  C   UNL     1      21.674  -9.471   1.452  0.00  0.00    +0.000 A 
ATOM      2  C   UNL     1      20.934 -10.305   2.289  0.00  0.00    +0.000 A 
ATOM      3  C   UNL     1      20.874 -10.042   3.664  0.00  0.00    +0.000 A 
ATOM      4  C   UNL     1      21.552  -8.949   4.205  0.00  0.00    +0.000 A 
ATOM      5  C   UNL     1      22.294  -8.111   3.376  0.00  0.00    +0.000 A 
ATOM      6  C   UNL     1      22.348  -8.380   2.014  0.00  0.00    +0.000 A 
ENDROOT
BRANCH   1   8
ATOM      7  C   UNL     1      21.806 -10.936  -0.414  0.00  0.00    +0.000 C 
ATOM      8  O   UNL     1      21.822  -9.608   0.095  0.00  0.00    +0.000 OA
ENDBRANCH   1   8
BRANCH   6   9
ATOM      9  O   UNL     1      23.084  -7.542   1.219  0.00  0.00    +0.000 OA
ATOM     10  H   UNL     1      23.010  -7.922   0.322  0.00  0.00    +0.000 HD
ENDBRANCH   6   9
TORSDOF 2
ENDMDL
MODEL 5
REMARK VINA RESULT:    -4.040      3.480      6.124
REMARK INTER + INTRA:          -4.445
REMARK INTER:                  -4.407
REMARK INTRA:                  -0.038
REMARK UNBOUND:                -0.051
REMARK  Name = 
REMARK  3 active torsions:
REMARK  status: ('A' for Active; 'I' for Inactive)
REMARK    1  A    between atoms: C_1  and  O_2
REMARK    2  A    between atoms: O_2  and  C_3
REMARK    3  A    between atoms: C_8  and  O_9
REMARK                            x       y       z     vdW  Elec       q    Type
REMARK                         _______ _______ _______ _____ _____    ______ ____
ROOT
ATOM      1  C   UNL     1      13.975  -2.576  10.898  0.00  0.00    +0.000 A 
ATOM      2  C   UNL     1      13.793  -3.563   9.930  0.00  0.00    +0.000 A 
ATOM      3  C   UNL     1      14.520  -3.512   8.734  0.00  0.00    +0.000 A 
ATOM      4  C   UNL     1      15.426  -2.477   8.500  0.00  0.00    +0.000 A 
ATOM      5  C   UNL     1      15.613  -1.487   9.462  0.00  0.00    +0.000 A 
ATOM      6  C   UNL     1      14.889  -1.545  10.645  0.00  0.00    +0.000 A 
ENDROOT
BRANCH   1   8
ATOM      7  C   UNL     1      12.231  -3.376  12.299  0.00  0.00    +0.000 C 
ATOM      8  O   UNL     1      13.334  -2.499  12.109  0.00  0.00    +0.000 OA
ENDBRANCH   1   8
BRANCH   6   9
ATOM      9  O   UNL     1      15.089  -0.560  11.575  0.00  0.00    +0.000 OA
ATOM     10  H   UNL     1      15.867  -0.067  11.251  0.00  0.00    +0.000 HD
ENDBRANCH   6   9
TORSDOF 2
ENDMDL
MODEL 6
REMARK VINA RESULT:    -4.025      4.938      6.275
REMARK INTER + INTRA:          -4.429
REMARK INTER:                  -4.387
REMARK INTRA:                  -0.042
REMARK UNBOUND:                -0.051
REMARK  Name = 
REMARK  3 active torsions:
REMARK  status: ('A' for Active; 'I' for Inactive)
REMARK    1  A    between atoms: C_1  and  O_2
REMARK    2  A    between atoms: O_2  and  C_3
REMARK    3  A    between atoms: C_8  and  O_9
REMARK                            x       y       z     vdW  Elec       q    Type
REMARK                         _______ _______ _______ _____ _____    ______ ____
ROOT
ATOM      1  C   UNL     1      15.496  -1.923   9.608  0.00  0.00    +0.000 A 
ATOM      2  C   UNL     1      15.174  -3.018   8.807  0.00  0.00    +0.000 A 
ATOM      3  C   UNL     1      14.054  -3.802   9.112  0.00  0.00    +0.000 A 
ATOM      4  C   UNL     1      13.255  -3.496  10.214  0.00  0.00    +0.000 A 
ATOM      5  C   UNL     1      13.570  -2.403  11.019  0.00  0.00    +0.000 A 
ATOM      6  C   UNL     1      14.683  -1.631  10.709  0.00  0.00    +0.000 A 
ENDROOT
BRANCH   1   8
ATOM      7  C   UNL     1      17.841  -1.576   9.785  0.00  0.00    +0.000 C 
ATOM      8  O   UNL     1      16.558  -1.073   9.430  0.00  0.00    +0.000 OA
ENDBRANCH   1   8
BRANCH   6   9
ATOM      9  O   UNL     1      14.972  -0.562  11.515  0.00  0.00    +0.000 OA
ATOM     10  H   UNL     1      14.111  -0.289  11.884  0.00  0.00    +0.000 HD
ENDBRANCH   6   9
TORSDOF 2
ENDMDL
MODEL 7
REMARK VINA RESULT:    -4.020      2.727      3.467
REMARK INTER + INTRA:          -4.423
REMARK INTER:                  -4.375
REMARK INTRA:                  -0.048
REMARK UNBOUND:                -0.051
REMARK  Name = 
REMARK  3 active torsions:
REMARK  status: ('A' for Active; 'I' for Inactive)
REMARK    1  A    between atoms: C_1  and  O_2
REMARK    2  A    between atoms: O_2  and  C_3
REMARK    3  A    between atoms: C_8  and  O_9
REMARK                            x       y       z     vdW  Elec       q    Type
REMARK                         _______ _______ _______ _____ _____    ______ ____
ROOT
ATOM      1  C   UNL     1      12.782  -3.484  11.007  0.00  0.00    +0.000 A 
ATOM      2  C   UNL     1      12.733  -3.110  12.349  0.00  0.00    +0.000 A 
ATOM      3  C   UNL     1      11.605  -3.418  13.120  0.00  0.00    +0.000 A 
ATOM      4  C   UNL     1      10.526  -4.099  12.554  0.00  0.00    +0.000 A 
ATOM      5  C   UNL     1      10.568  -4.477  11.214  0.00  0.00    +0.000 A 
ATOM      6  C   UNL     1      11.690  -4.166  10.457  0.00  0.00    +0.000 A 
ENDROOT
BRANCH   1   8
ATOM      7  C   UNL     1      14.329  -1.922  10.105  0.00  0.00    +0.000 C 
ATOM      8  O   UNL     1      13.817  -3.248  10.137  0.00  0.00    +0.000 OA
ENDBRANCH   1   8
BRANCH   6   9
ATOM      9  O   UNL     1      11.708  -4.547   9.142  0.00  0.00    +0.000 OA
ATOM     10  H   UNL     1      12.172  -3.823   8.679  0.00  0.00    +0.000 HD
ENDBRANCH   6   9
TORSDOF 2
ENDMDL
MODEL 8
REMARK VINA RESULT:    -3.963      3.347      6.296
REMARK INTER + INTRA:          -4.361
REMARK INTER:                  -4.322
REMARK INTRA:                  -0.039
REMARK UNBOUND:                -0.051
REMARK  Name = 
REMARK  3 active torsions:
REMARK  status: ('A' for Active; 'I' for Inactive)
REMARK    1  A    between atoms: C_1  and  O_2
REMARK    2  A    between atoms: O_2  and  C_3
REMARK    3  A    between atoms: C_8  and  O_9
REMARK                            x       y       z     vdW  Elec       q    Type
REMARK                         _______ _______ _______ _____ _____    ______ ____
ROOT
ATOM      1  C   UNL     1      13.556  -3.279  10.068  0.00  0.00    +0.000 A 
ATOM      2  C   UNL     1      13.864  -2.289  11.001  0.00  0.00    +0.000 A 
ATOM      3  C   UNL     1      15.014  -1.508  10.838  0.00  0.00    +0.000 A 
ATOM      4  C   UNL     1      15.860  -1.712   9.745  0.00  0.00    +0.000 A 
ATOM      5  C   UNL     1      15.558  -2.698   8.809  0.00  0.00    +0.000 A 
ATOM      6  C   UNL     1      14.415  -3.469   8.979  0.00  0.00    +0.000 A 
ENDROOT
BRANCH   1   8
ATOM      7  C   UNL     1      11.360  -3.683  10.882  0.00  0.00    +0.000 C 
ATOM      8  O   UNL     1      12.469  -4.115  10.102  0.00  0.00    +0.000 OA
ENDBRANCH   1   8
BRANCH   6   9
ATOM      9  O   UNL     1      14.140  -4.432   8.046  0.00  0.00    +0.000 OA
ATOM     10  H   UNL     1      13.191  -4.628   8.163  0.00  0.00    +0.000 HD
ENDBRANCH   6   9
TORSDOF 2
ENDMDL
MODEL 9
REMARK VINA RESULT:    -3.767      2.035      3.805
REMARK INTER + INTRA:          -4.148
REMARK INTER:                  -4.105
REMARK INTRA:                  -0.042
REMARK UNBOUND:                -0.051
REMARK  Name = 
REMARK  3 active torsions:
REMARK  status: ('A' for Active; 'I' for Inactive)
REMARK    1  A    between atoms: C_1  and  O_2
REMARK    2  A    between atoms: O_2  and  C_3
REMARK    3  A    between atoms: C_8  and  O_9
REMARK                            x       y       z     vdW  Elec       q    Type
REMARK                         _______ _______ _______ _____ _____    ______ ____
ROOT
ATOM      1  C   UNL     1       9.750  -5.756  12.923  0.00  0.00    +0.000 A 
ATOM      2  C   UNL     1       9.356  -4.418  12.924  0.00  0.00    +0.000 A 
ATOM      3  C   UNL     1      10.322  -3.404  12.926  0.00  0.00    +0.000 A 
ATOM      4  C   UNL     1      11.681  -3.722  12.927  0.00  0.00    +0.000 A 
ATOM      5  C   UNL     1      12.083  -5.055  12.925  0.00  0.00    +0.000 A 
ATOM      6  C   UNL     1      11.118  -6.055  12.924  0.00  0.00    +0.000 A 
ENDROOT
BRANCH   1   8
ATOM      7  C   UNL     1       7.699  -6.714  12.201  0.00  0.00    +0.000 C 
ATOM      8  O   UNL     1       8.918  -6.846  12.922  0.00  0.00    +0.000 OA
ENDBRANCH   1   8
BRANCH   6   9
ATOM      9  O   UNL     1      11.538  -7.358  12.923  0.00  0.00    +0.000 OA
ATOM     10  H   UNL     1      12.424  -7.334  12.514  0.00  0.00    +0.000 HD
ENDBRANCH   6   9
TORSDOF 2
ENDMDL
