MODEL 1
REMARK VINA RESULT:    -4.219      0.000      0.000
REMARK INTER + INTRA:          -4.639
REMARK INTER:                  -4.589
REMARK INTRA:                  -0.050
REMARK UNBOUND:                -0.050
REMARK  Name = 
REMARK  3 active torsions:
REMARK  status: ('A' for Active; 'I' for Inactive)
REMARK    1  A    between atoms: C_1  and  O_2
REMARK    2  A    between atoms: O_2  and  C_3
REMARK    3  A    between atoms: C_8  and  O_9
REMARK                            x       y       z     vdW  Elec       q    Type
REMARK                         _______ _______ _______ _____ _____    ______ ____
ROOT
ATOM      1  C   UNL     1      10.783  -4.880  12.547  0.00  0.00    +0.000 A 
ATOM      2  C   UNL     1      11.126  -6.217  12.354  0.00  0.00    +0.000 A 
ATOM      3  C   UNL     1      10.146  -7.213  12.460  0.00  0.00    +0.000 A 
ATOM      4  C   UNL     1       8.825  -6.877  12.759  0.00  0.00    +0.000 A 
ATOM      5  C   UNL     1       8.475  -5.543  12.953  0.00  0.00    +0.000 A 
ATOM      6  C   UNL     1       9.452  -4.562  12.847  0.00  0.00    +0.000 A 
ENDROOT
BRANCH   1   8
ATOM      7  C   UNL     1      12.103  -3.454  11.179  0.00  0.00    +0.000 C 
ATOM      8  O   UNL     1      11.634  -3.806  12.475  0.00  0.00    +0.000 OA
ENDBRANCH   1   8
BRANCH   6   9
ATOM      9  O   UNL     1       9.084  -3.258  13.042  0.00  0.00    +0.000 OA
ATOM     10  H   UNL     1       9.755  -2.899  13.654  0.00  0.00    +0.000 HD
ENDBRANCH   6   9
TORSDOF 2
ENDMDL
MODEL 2
REMARK VINA RESULT:    -4.177      1.645      2.389
REMARK INTER + INTRA:          -4.593
REMARK INTER:                  -4.543
REMARK INTRA:                  -0.050
REMARK UNBOUND:                -0.050
REMARK  Name = 
REMARK  3 active torsions:
REMARK  status: ('A' for Active; 'I' for Inactive)
REMARK    1  A    between atoms: C_1  and  O_2
REMARK    2  A    between atoms: O_2  and  C_3
REMARK    3  A    between atoms: C_8  and  O_9
REMARK                            x       y       z     vdW  Elec       q    Type
REMARK                         _______ _______ _______ _____ _____    ______ ____
ROOT
ATOM      1  C   UNL     1      10.689  -4.070  11.629  0.00  0.00    +0.000 A 
ATOM      2  C   UNL     1      10.052  -3.566  12.763  0.00  0.00    +0.000 A 
ATOM      3  C   UNL     1       9.031  -4.303  13.377  0.00  0.00    +0.000 A 
ATOM      4  C   UNL     1       8.643  -5.541  12.862  0.00  0.00    +0.000 A 
ATOM      5  C   UNL     1       9.275  -6.051  11.730  0.00  0.00    +0.000 A 
ATOM      6  C   UNL     1      10.287  -5.314  11.127  0.00  0.00    +0.000 A 
ENDROOT
BRANCH   1   8
ATOM      7  C   UNL     1      12.854  -3.092  11.671  0.00  0.00    +0.000 C 
ATOM      8  O   UNL     1      11.698  -3.461  10.928  0.00  0.00    +0.000 OA
ENDBRANCH   1   8
BRANCH   6   9
ATOM      9  O   UNL     1      10.893  -5.836  10.016  0.00  0.00    +0.000 OA
ATOM     10  H   UNL     1      10.168  -6.243   9.506  0.00  0.00    +0.000 HD
ENDBRANCH   6   9
TORSDOF 2
ENDMDL
MODEL 3
REMARK VINA RESULT:    -4.176     14.845     16.368
REMARK INTER + INTRA:          -4.592
REMARK INTER:                  -4.553
REMARK INTRA:                  -0.038
REMARK UNBOUND:                -0.050
REMARK  Name = 
REMARK  3 active torsions:
REMARK  status: ('A' for Active; 'I' for Inactive)
REMARK    1  A    between atoms: C_1  and  O_2
REMARK    2  A    between atoms: O_2  and  C_3
REMARK    3  A    between atoms: C_8  and  O_9
REMARK                            x       y       z     vdW  Elec       q    Type
REMARK                         _______ _______ _______ _____ _____    ______ ____
ROOT
ATOM      1  C   UNL     1      22.045  -8.719   2.653  0.00  0.00    +0.000 A 
ATOM      2  C   UNL     1      21.250  -9.847   2.855  0.00  0.00    +0.000 A 
ATOM      3  C   UNL     1      20.924 -10.676   1.774  0.00  0.00    +0.000 A 
ATOM      4  C   UNL     1      21.389 -10.381   0.490  0.00  0.00    +0.000 A 
ATOM      5  C   UNL     1      22.183  -9.256   0.281  0.00  0.00    +0.000 A 
ATOM      6  C   UNL     1      22.501  -8.440   1.359  0.00  0.00    +0.000 A 
ENDROOT
BRANCH   1   8
ATOM      7  C   UNL     1      21.701  -7.828   4.829  0.00  0.00    +0.000 C 
ATOM      8  O   UNL     1      22.440  -7.823   3.613  0.00  0.00    +0.000 OA
ENDBRANCH   1   8
BRANCH   6   9
ATOM      9  O   UNL     1      23.284  -7.340   1.128  0.00  0.00    +0.000 OA
ATOM     10  H   UNL     1      23.834  -7.253   1.930  0.00  0.00    +0.000 HD
ENDBRANCH   6   9
TORSDOF 2
ENDMDL
MODEL 4
REMARK VINA RESULT:    -4.116      1.940      3.653
REMARK INTER + INTRA:          -4.526
REMARK INTER:                  -4.482
REMARK INTRA:                  -0.044
REMARK UNBOUND:                -0.050
REMARK  Name = 
REMARK  3 active torsions:
REMARK  status: ('A' for Active; 'I' for Inactive)
REMARK    1  A    between atoms: C_1  and  O_2
REMARK    2  A    between atoms: O_2  and  C_3
REMARK    3  A    between atoms: C_8  and  O_9
REMARK                            x       y       z     vdW  Elec       q    Type
REMARK                         _______ _______ _______ _____ _____    ______ ____
ROOT
ATOM      1  C   UNL     1      10.472  -5.201  11.501  0.00  0.00    +0.000 A 
ATOM      2  C   UNL     1      11.123  -5.265  12.732  0.00  0.00    +0.000 A 
ATOM      3  C   UNL     1      12.216  -4.427  12.991  0.00  0.00    +0.000 A 
ATOM      4  C   UNL     1      12.660  -3.525  12.023  0.00  0.00    +0.000 A 
ATOM      5  C   UNL     1      12.015  -3.455  10.790  0.00  0.00    +0.000 A 
ATOM      6  C   UNL     1      10.933  -4.290  10.543  0.00  0.00    +0.000 A 
ENDROOT
BRANCH   1   8
ATOM      7  C   UNL     1       8.396  -6.192  12.097  0.00  0.00    +0.000 C 
ATOM      8  O   UNL     1       9.396  -5.958  11.113  0.00  0.00    +0.000 OA
ENDBRANCH   1   8
BRANCH   6   9
ATOM      9  O   UNL     1      10.314  -4.203   9.324  0.00  0.00    +0.000 OA
ATOM     10  H   UNL     1       9.393  -4.479   9.492  0.00  0.00    +0.000 HD
ENDBRANCH   6   9
TORSDOF 2
ENDMDL
MODEL 5
REMARK VINA RESULT:    -4.026     15.359     16.427
REMARK INTER + INTRA:          -4.429
REMARK INTER:                  -4.387
REMARK INTRA:                  -0.042
REMARK UNBOUND:                -0.050
REMARK  Name = 
REMARK  3 active torsions:
REMARK  status: ('A' for Active; 'I' for Inactive)
REMARK    1  A    between atoms: C_1  and  O_2
REMARK    2  A    between atoms: O_2  and  C_3
REMARK    3  A    between atoms: C_8  and  O_9
REMARK                            x       y       z     vdW  Elec       q    Type
REMARK                         _______ _______ _______ _____ _____    ______ ____
ROOT
ATOM      1  C   UNL     1      21.741  -9.366   1.545  0.00  0.00    +0.000 A 
ATOM      2  C   UNL     1      20.997 -10.191   2.387  0.00  0.00    +0.000 A 
ATOM      3  C   UNL     1      20.980  -9.950   3.767  0.00  0.00    +0.000 A 
ATOM      4  C   UNL     1      21.704  -8.887   4.309  0.00  0.00    +0.000 A 
ATOM      5  C   UNL     1      22.450  -8.057   3.474  0.00  0.00    +0.000 A 
ATOM      6  C   UNL     1      22.461  -8.304   2.107  0.00  0.00    +0.000 A 
ENDROOT
BRANCH   1   8
ATOM      7  C   UNL     1      21.774 -10.801  -0.348  0.00  0.00    +0.000 C 
ATOM      8  O   UNL     1      21.850  -9.484   0.183  0.00  0.00    +0.000 OA
ENDBRANCH   1   8
BRANCH   6   9
ATOM      9  O   UNL     1      23.202  -7.475   1.307  0.00  0.00    +0.000 OA
ATOM     10  H   UNL     1      22.731  -6.620   1.332  0.00  0.00    +0.000 HD
ENDBRANCH   6   9
TORSDOF 2
ENDMDL
MODEL 6
REMARK VINA RESULT:    -4.020      2.726      3.458
REMARK INTER + INTRA:          -4.422
REMARK INTER:                  -4.374
REMARK INTRA:                  -0.049
REMARK UNBOUND:                -0.050
REMARK  Name = 
REMARK  3 active torsions:
REMARK  status: ('A' for Active; 'I' for Inactive)
REMARK    1  A    between atoms: C_1  and  O_2
REMARK    2  A    between atoms: O_2  and  C_3
REMARK    3  A    between atoms: C_8  and  O_9
REMARK                            x       y       z     vdW  Elec       q    Type
REMARK                         _______ _______ _______ _____ _____    ______ ____
ROOT
ATOM      1  C   UNL     1      12.724  -3.496  11.044  0.00  0.00    +0.000 A 
ATOM      2  C   UNL     1      12.666  -3.119  12.385  0.00  0.00    +0.000 A 
ATOM      3  C   UNL     1      11.520  -3.399  13.141  0.00  0.00    +0.000 A 
ATOM      4  C   UNL     1      10.432  -4.052  12.561  0.00  0.00    +0.000 A 
ATOM      5  C   UNL     1      10.482  -4.432  11.222  0.00  0.00    +0.000 A 
ATOM      6  C   UNL     1      11.622  -4.151  10.479  0.00  0.00    +0.000 A 
ENDROOT
BRANCH   1   8
ATOM      7  C   UNL     1      14.295  -1.964  10.132  0.00  0.00    +0.000 C 
ATOM      8  O   UNL     1      13.775  -3.287  10.187  0.00  0.00    +0.000 OA
ENDBRANCH   1   8
BRANCH   6   9
ATOM      9  O   UNL     1      11.648  -4.533   9.165  0.00  0.00    +0.000 OA
ATOM     10  H   UNL     1      10.720  -4.467   8.868  0.00  0.00    +0.000 HD
ENDBRANCH   6   9
TORSDOF 2
ENDMDL
MODEL 7
REMARK VINA RESULT:    -4.016      3.696      6.296
REMARK INTER + INTRA:          -4.418
REMARK INTER:                  -4.380
REMARK INTRA:                  -0.037
REMARK UNBOUND:                -0.050
REMARK  Name = 
REMARK  3 active torsions:
REMARK  status: ('A' for Active; 'I' for Inactive)
REMARK    1  A    between atoms: C_1  and  O_2
REMARK    2  A    between atoms: O_2  and  C_3
REMARK    3  A    between atoms: C_8  and  O_9
REMARK                            x       y       z     vdW  Elec       q    Type
REMARK                         _______ _______ _______ _____ _____    ______ ____
ROOT
ATOM      1  C   UNL     1      14.111  -2.472  10.865  0.00  0.00    +0.000 A 
ATOM      2  C   UNL     1      13.891  -3.470   9.916  0.00  0.00    +0.000 A 
ATOM      3  C   UNL     1      14.618  -3.469   8.719  0.00  0.00    +0.000 A 
ATOM      4  C   UNL     1      15.563  -2.474   8.466  0.00  0.00    +0.000 A 
ATOM      5  C   UNL     1      15.789  -1.474   9.408  0.00  0.00    +0.000 A 
ATOM      6  C   UNL     1      15.064  -1.482  10.593  0.00  0.00    +0.000 A 
ENDROOT
BRANCH   1   8
ATOM      7  C   UNL     1      12.483  -3.323  12.372  0.00  0.00    +0.000 C 
ATOM      8  O   UNL     1      13.475  -2.348  12.074  0.00  0.00    +0.000 OA
ENDBRANCH   1   8
BRANCH   6   9
ATOM      9  O   UNL     1      15.303  -0.488  11.504  0.00  0.00    +0.000 OA
ATOM     10  H   UNL     1      16.026  -0.832  12.063  0.00  0.00    +0.000 HD
ENDBRANCH   6   9
TORSDOF 2
ENDMDL
MODEL 8
REMARK VINA RESULT:    -3.822     16.796     17.586
REMARK INTER + INTRA:          -4.208
REMARK INTER:                  -4.155
REMARK INTRA:                  -0.053
REMARK UNBOUND:                -0.050
REMARK  Name = 
REMARK  3 active torsions:
REMARK  status: ('A' for Active; 'I' for Inactive)
REMARK    1  A    between atoms: C_1  and  O_2
REMARK    2  A    between atoms: O_2  and  C_3
REMARK    3  A    between atoms: C_8  and  O_9
REMARK                            x       y       z     vdW  Elec       q    Type
REMARK                         _______ _______ _______ _____ _____    ______ ____
ROOT
ATOM      1  C   UNL     1      23.515  -9.925   1.993  0.00  0.00    +0.000 A 
ATOM      2  C   UNL     1      23.569 -11.213   1.463  0.00  0.00    +0.000 A 
ATOM      3  C   UNL     1      22.748 -11.560   0.383  0.00  0.00    +0.000 A 
ATOM      4  C   UNL     1      21.872 -10.623  -0.170  0.00  0.00    +0.000 A 
ATOM      5  C   UNL     1      21.814  -9.334   0.354  0.00  0.00    +0.000 A 
ATOM      6  C   UNL     1      22.631  -8.999   1.426  0.00  0.00    +0.000 A 
ENDROOT
BRANCH   1   8
ATOM      7  C   UNL     1      23.981 -10.011   4.322  0.00  0.00    +0.000 C 
ATOM      8  O   UNL     1      24.257  -9.449   3.045  0.00  0.00    +0.000 OA
ENDBRANCH   1   8
BRANCH   6   9
ATOM      9  O   UNL     1      22.555  -7.725   1.923  0.00  0.00    +0.000 OA
ATOM     10  H   UNL     1      23.197  -7.708   2.659  0.00  0.00    +0.000 HD
ENDBRANCH   6   9
TORSDOF 2
ENDMDL
MODEL 9
REMARK VINA RESULT:    -3.785      2.000      3.806
REMARK INTER + INTRA:          -4.167
REMARK INTER:                  -4.125
REMARK INTRA:                  -0.042
REMARK UNBOUND:                -0.050
REMARK  Name = 
REMARK  3 active torsions:
REMARK  status: ('A' for Active; 'I' for Inactive)
REMARK    1  A    between atoms: C_1  and  O_2
REMARK    2  A    between atoms: O_2  and  C_3
REMARK    3  A    between atoms: C_8  and  O_9
REMARK                            x       y       z     vdW  Elec       q    Type
REMARK                         _______ _______ _______ _____ _____    ______ ____
ROOT
ATOM      1  C   UNL     1       9.769  -5.742  12.870  0.00  0.00    +0.000 A 
ATOM      2  C   UNL     1       9.349  -4.413  12.917  0.00  0.00    +0.000 A 
ATOM      3  C   UNL     1      10.295  -3.380  12.921  0.00  0.00    +0.000 A 
ATOM      4  C   UNL     1      11.660  -3.670  12.879  0.00  0.00    +0.000 A 
ATOM      5  C   UNL     1      12.088  -4.995  12.832  0.00  0.00    +0.000 A 
ATOM      6  C   UNL     1      11.143  -6.013  12.829  0.00  0.00    +0.000 A 
ENDROOT
BRANCH   1   8
ATOM      7  C   UNL     1       7.721  -6.724  12.174  0.00  0.00    +0.000 C 
ATOM      8  O   UNL     1       8.959  -6.849  12.862  0.00  0.00    +0.000 OA
ENDBRANCH   1   8
BRANCH   6   9
ATOM      9  O   UNL     1      11.587  -7.307  12.783  0.00  0.00    +0.000 OA
ATOM     10  H   UNL     1      11.413  -7.662  13.675  0.00  0.00    +0.000 HD
ENDBRANCH   6   9
TORSDOF 2
ENDMDL
