MODEL 1
REMARK VINA RESULT:    -5.417      0.000      0.000
REMARK INTER + INTRA:          -7.847
REMARK INTER:                  -7.317
REMARK INTRA:                  -0.529
REMARK UNBOUND:                -0.529
REMARK  Name = 
REMARK  10 active torsions:
REMARK  status: ('A' for Active; 'I' for Inactive)
REMARK    1  A    between atoms: C_1  and  C_2
REMARK    2  A    between atoms: C_5  and  N_8
REMARK    3  A    between atoms: N_8  and  C_9
REMARK    4  A    between atoms: N_8  and  C_13
REMARK    5  A    between atoms: C_9  and  C_10
REMARK    6  A    between atoms: C_10  and  C_11
REMARK    7  A    between atoms: C_10  and  O_12
REMARK    8  A    between atoms: C_13  and  C_14
REMARK    9  A    between atoms: C_14  and  C_15
REMARK   10  A    between atoms: C_14  and  O_16
REMARK                            x       y       z     vdW  Elec       q    Type
REMARK                         _______ _______ _______ _____ _____    ______ ____
ROOT
ATOM      1  N   UNL     1      13.166  -2.949  11.923  0.00  0.00    +0.000 N 
ENDROOT
BRANCH   1   6
ATOM      2  C   UNL     1       8.266  -5.975  12.328  0.00  0.00    +0.000 C 
ATOM      3  C   UNL     1       9.548  -5.204  12.240  0.00  0.00    +0.000 A 
ATOM      4  C   UNL     1       9.762  -4.081  13.032  0.00  0.00    +0.000 A 
ATOM      5  C   UNL     1      10.954  -3.345  12.924  0.00  0.00    +0.000 A 
ATOM      6  C   UNL     1      11.972  -3.676  12.012  0.00  0.00    +0.000 A 
ATOM      7  C   UNL     1      11.723  -4.818  11.229  0.00  0.00    +0.000 A 
ATOM      8  C   UNL     1      10.537  -5.564  11.329  0.00  0.00    +0.000 A 
ENDBRANCH   1   6
BRANCH   1   9
ATOM      9  C   UNL     1      13.486  -2.193  10.688  0.00  0.00    +0.000 C 
BRANCH   9  10
ATOM     10  C   UNL     1      14.961  -1.724  10.637  0.00  0.00    +0.000 C 
ATOM     11  C   UNL     1      15.445  -1.604   9.196  0.00  0.00    +0.000 C 
BRANCH  10  12
ATOM     12  O   UNL     1      15.116  -0.444  11.265  0.00  0.00    +0.000 OA
ATOM     13  H   UNL     1      15.212  -0.587  12.221  0.00  0.00    +0.000 HD
ENDBRANCH  10  12
ENDBRANCH   9  10
ENDBRANCH   1   9
BRANCH   1  14
ATOM     14  C   UNL     1      14.340  -3.291  12.767  0.00  0.00    +0.000 C 
BRANCH  14  15
ATOM     15  C   UNL     1      14.304  -2.571  14.137  0.00  0.00    +0.000 C 
ATOM     16  C   UNL     1      15.247  -3.189  15.163  0.00  0.00    +0.000 C 
BRANCH  15  17
ATOM     17  O   UNL     1      14.630  -1.188  14.014  0.00  0.00    +0.000 OA
ATOM     18  H   UNL     1      14.330  -0.936  13.117  0.00  0.00    +0.000 HD
ENDBRANCH  15  17
ENDBRANCH  14  15
ENDBRANCH   1  14
TORSDOF 7
ENDMDL
MODEL 2
REMARK VINA RESULT:    -5.383      1.922      2.845
REMARK INTER + INTRA:          -7.800
REMARK INTER:                  -7.676
REMARK INTRA:                  -0.124
REMARK UNBOUND:                -0.529
REMARK  Name = 
REMARK  10 active torsions:
REMARK  status: ('A' for Active; 'I' for Inactive)
REMARK    1  A    between atoms: C_1  and  C_2
REMARK    2  A    between atoms: C_5  and  N_8
REMARK    3  A    between atoms: N_8  and  C_9
REMARK    4  A    between atoms: N_8  and  C_13
REMARK    5  A    between atoms: C_9  and  C_10
REMARK    6  A    between atoms: C_10  and  C_11
REMARK    7  A    between atoms: C_10  and  O_12
REMARK    8  A    between atoms: C_13  and  C_14
REMARK    9  A    between atoms: C_14  and  C_15
REMARK   10  A    between atoms: C_14  and  O_16
REMARK                            x       y       z     vdW  Elec       q    Type
REMARK                         _______ _______ _______ _____ _____    ______ ____
ROOT
ATOM      1  N   UNL     1      14.774  -3.048  11.487  0.00  0.00    +0.000 N 
ENDROOT
BRANCH   1   6
ATOM      2  C   UNL     1       9.305  -3.787  13.183  0.00  0.00    +0.000 C 
ATOM      3  C   UNL     1      10.719  -3.571  12.739  0.00  0.00    +0.000 A 
ATOM      4  C   UNL     1      11.085  -3.744  11.408  0.00  0.00    +0.000 A 
ATOM      5  C   UNL     1      12.418  -3.569  11.003  0.00  0.00    +0.000 A 
ATOM      6  C   UNL     1      13.449  -3.240  11.901  0.00  0.00    +0.000 A 
ATOM      7  C   UNL     1      13.043  -3.071  13.238  0.00  0.00    +0.000 A 
ATOM      8  C   UNL     1      11.713  -3.240  13.656  0.00  0.00    +0.000 A 
ENDBRANCH   1   6
BRANCH   1   9
ATOM      9  C   UNL     1      15.278  -3.730  10.271  0.00  0.00    +0.000 C 
BRANCH   9  10
ATOM     10  C   UNL     1      14.638  -3.188   8.970  0.00  0.00    +0.000 C 
ATOM     11  C   UNL     1      15.523  -2.126   8.328  0.00  0.00    +0.000 C 
BRANCH  10  12
ATOM     12  O   UNL     1      14.443  -4.241   8.014  0.00  0.00    +0.000 OA
ATOM     13  H   UNL     1      15.036  -4.974   8.249  0.00  0.00    +0.000 HD
ENDBRANCH  10  12
ENDBRANCH   9  10
ENDBRANCH   1   9
BRANCH   1  14
ATOM     14  C   UNL     1      15.825  -2.622  12.446  0.00  0.00    +0.000 C 
BRANCH  14  15
ATOM     15  C   UNL     1      16.340  -1.193  12.152  0.00  0.00    +0.000 C 
ATOM     16  C   UNL     1      17.581  -1.173  11.266  0.00  0.00    +0.000 C 
BRANCH  15  17
ATOM     17  O   UNL     1      15.339  -0.390  11.528  0.00  0.00    +0.000 OA
ATOM     18  H   UNL     1      15.509  -0.476  10.568  0.00  0.00    +0.000 HD
ENDBRANCH  15  17
ENDBRANCH  14  15
ENDBRANCH   1  14
TORSDOF 7
ENDMDL
MODEL 3
REMARK VINA RESULT:    -5.381      2.553      3.881
REMARK INTER + INTRA:          -7.797
REMARK INTER:                  -7.335
REMARK INTRA:                  -0.462
REMARK UNBOUND:                -0.529
REMARK  Name = 
REMARK  10 active torsions:
REMARK  status: ('A' for Active; 'I' for Inactive)
REMARK    1  A    between atoms: C_1  and  C_2
REMARK    2  A    between atoms: C_5  and  N_8
REMARK    3  A    between atoms: N_8  and  C_9
REMARK    4  A    between atoms: N_8  and  C_13
REMARK    5  A    between atoms: C_9  and  C_10
REMARK    6  A    between atoms: C_10  and  C_11
REMARK    7  A    between atoms: C_10  and  O_12
REMARK    8  A    between atoms: C_13  and  C_14
REMARK    9  A    between atoms: C_14  and  C_15
REMARK   10  A    between atoms: C_14  and  O_16
REMARK                            x       y       z     vdW  Elec       q    Type
REMARK                         _______ _______ _______ _____ _____    ______ ____
ROOT
ATOM      1  N   UNL     1      16.154  -3.210  11.387  0.00  0.00    +0.000 N 
ENDROOT
BRANCH   1   6
ATOM      2  C   UNL     1      10.492  -3.682  12.411  0.00  0.00    +0.000 C 
ATOM      3  C   UNL     1      11.960  -3.534  12.148  0.00  0.00    +0.000 A 
ATOM      4  C   UNL     1      12.443  -3.398  10.851  0.00  0.00    +0.000 A 
ATOM      5  C   UNL     1      13.822  -3.291  10.608  0.00  0.00    +0.000 A 
ATOM      6  C   UNL     1      14.782  -3.337  11.635  0.00  0.00    +0.000 A 
ATOM      7  C   UNL     1      14.258  -3.474  12.933  0.00  0.00    +0.000 A 
ATOM      8  C   UNL     1      12.881  -3.580  13.191  0.00  0.00    +0.000 A 
ENDBRANCH   1   6
BRANCH   1   9
ATOM      9  C   UNL     1      16.947  -4.392  10.971  0.00  0.00    +0.000 C 
BRANCH   9  10
ATOM     10  C   UNL     1      17.378  -4.333   9.485  0.00  0.00    +0.000 C 
ATOM     11  C   UNL     1      18.730  -5.006   9.282  0.00  0.00    +0.000 C 
BRANCH  10  12
ATOM     12  O   UNL     1      16.421  -4.995   8.645  0.00  0.00    +0.000 OA
ATOM     13  H   UNL     1      15.892  -4.315   8.196  0.00  0.00    +0.000 HD
ENDBRANCH  10  12
ENDBRANCH   9  10
ENDBRANCH   1   9
BRANCH   1  14
ATOM     14  C   UNL     1      16.946  -2.109  11.992  0.00  0.00    +0.000 C 
BRANCH  14  15
ATOM     15  C   UNL     1      16.774  -0.776  11.225  0.00  0.00    +0.000 C 
ATOM     16  C   UNL     1      16.877  -0.937   9.713  0.00  0.00    +0.000 C 
BRANCH  15  17
ATOM     17  O   UNL     1      15.524  -0.155  11.519  0.00  0.00    +0.000 OA
ATOM     18  H   UNL     1      15.757   0.693  11.948  0.00  0.00    +0.000 HD
ENDBRANCH  15  17
ENDBRANCH  14  15
ENDBRANCH   1  14
TORSDOF 7
ENDMDL
MODEL 4
REMARK VINA RESULT:    -5.264      2.125      4.953
REMARK INTER + INTRA:          -7.640
REMARK INTER:                  -7.208
REMARK INTRA:                  -0.432
REMARK UNBOUND:                -0.529
REMARK  Name = 
REMARK  10 active torsions:
REMARK  status: ('A' for Active; 'I' for Inactive)
REMARK    1  A    between atoms: C_1  and  C_2
REMARK    2  A    between atoms: C_5  and  N_8
REMARK    3  A    between atoms: N_8  and  C_9
REMARK    4  A    between atoms: N_8  and  C_13
REMARK    5  A    between atoms: C_9  and  C_10
REMARK    6  A    between atoms: C_10  and  C_11
REMARK    7  A    between atoms: C_10  and  O_12
REMARK    8  A    between atoms: C_13  and  C_14
REMARK    9  A    between atoms: C_14  and  C_15
REMARK   10  A    between atoms: C_14  and  O_16
REMARK                            x       y       z     vdW  Elec       q    Type
REMARK                         _______ _______ _______ _____ _____    ______ ____
ROOT
ATOM      1  N   UNL     1      13.069  -3.284  11.257  0.00  0.00    +0.000 N 
ENDROOT
BRANCH   1   6
ATOM      2  C   UNL     1      15.367  -4.906  16.299  0.00  0.00    +0.000 C 
ATOM      3  C   UNL     1      14.773  -4.509  14.982  0.00  0.00    +0.000 A 
ATOM      4  C   UNL     1      15.576  -4.035  13.950  0.00  0.00    +0.000 A 
ATOM      5  C   UNL     1      15.010  -3.636  12.729  0.00  0.00    +0.000 A 
ATOM      6  C   UNL     1      13.625  -3.666  12.485  0.00  0.00    +0.000 A 
ATOM      7  C   UNL     1      12.844  -4.152  13.550  0.00  0.00    +0.000 A 
ATOM      8  C   UNL     1      13.397  -4.557  14.776  0.00  0.00    +0.000 A 
ENDBRANCH   1   6
BRANCH   1   9
ATOM      9  C   UNL     1      11.605  -3.372  11.045  0.00  0.00    +0.000 C 
BRANCH   9  10
ATOM     10  C   UNL     1      11.201  -4.553  10.128  0.00  0.00    +0.000 C 
ATOM     11  C   UNL     1      10.548  -5.670  10.934  0.00  0.00    +0.000 C 
BRANCH  10  12
ATOM     12  O   UNL     1      10.272  -4.130   9.121  0.00  0.00    +0.000 OA
ATOM     13  H   UNL     1      10.780  -3.777   8.372  0.00  0.00    +0.000 HD
ENDBRANCH  10  12
ENDBRANCH   9  10
ENDBRANCH   1   9
BRANCH   1  14
ATOM     14  C   UNL     1      13.882  -3.280  10.014  0.00  0.00    +0.000 C 
BRANCH  14  15
ATOM     15  C   UNL     1      14.531  -1.902   9.744  0.00  0.00    +0.000 C 
ATOM     16  C   UNL     1      15.406  -1.885   8.496  0.00  0.00    +0.000 C 
BRANCH  15  17
ATOM     17  O   UNL     1      13.550  -0.874   9.610  0.00  0.00    +0.000 OA
ATOM     18  H   UNL     1      14.063  -0.053   9.463  0.00  0.00    +0.000 HD
ENDBRANCH  15  17
ENDBRANCH  14  15
ENDBRANCH   1  14
TORSDOF 7
ENDMDL
MODEL 5
REMARK VINA RESULT:    -5.262      2.422      3.605
REMARK INTER + INTRA:          -7.637
REMARK INTER:                  -7.156
REMARK INTRA:                  -0.481
REMARK UNBOUND:                -0.529
REMARK  Name = 
REMARK  10 active torsions:
REMARK  status: ('A' for Active; 'I' for Inactive)
REMARK    1  A    between atoms: C_1  and  C_2
REMARK    2  A    between atoms: C_5  and  N_8
REMARK    3  A    between atoms: N_8  and  C_9
REMARK    4  A    between atoms: N_8  and  C_13
REMARK    5  A    between atoms: C_9  and  C_10
REMARK    6  A    between atoms: C_10  and  C_11
REMARK    7  A    between atoms: C_10  and  O_12
REMARK    8  A    between atoms: C_13  and  C_14
REMARK    9  A    between atoms: C_14  and  C_15
REMARK   10  A    between atoms: C_14  and  O_16
REMARK                            x       y       z     vdW  Elec       q    Type
REMARK                         _______ _______ _______ _____ _____    ______ ____
ROOT
ATOM      1  N   UNL     1      15.377  -3.092  11.215  0.00  0.00    +0.000 N 
ENDROOT
BRANCH   1   6
ATOM      2  C   UNL     1       9.889  -3.652  12.915  0.00  0.00    +0.000 C 
ATOM      3  C   UNL     1      11.315  -3.531  12.475  0.00  0.00    +0.000 A 
ATOM      4  C   UNL     1      12.339  -3.371  13.403  0.00  0.00    +0.000 A 
ATOM      5  C   UNL     1      13.671  -3.228  12.983  0.00  0.00    +0.000 A 
ATOM      6  C   UNL     1      14.044  -3.215  11.626  0.00  0.00    +0.000 A 
ATOM      7  C   UNL     1      12.984  -3.382  10.716  0.00  0.00    +0.000 A 
ATOM      8  C   UNL     1      11.648  -3.528  11.123  0.00  0.00    +0.000 A 
ENDBRANCH   1   6
BRANCH   1   9
ATOM      9  C   UNL     1      15.877  -1.798  10.691  0.00  0.00    +0.000 C 
BRANCH   9  10
ATOM     10  C   UNL     1      16.660  -0.984  11.751  0.00  0.00    +0.000 C 
ATOM     11  C   UNL     1      18.097  -1.479  11.866  0.00  0.00    +0.000 C 
BRANCH  10  12
ATOM     12  O   UNL     1      16.696   0.408  11.408  0.00  0.00    +0.000 OA
ATOM     13  H   UNL     1      16.660   0.480  10.440  0.00  0.00    +0.000 HD
ENDBRANCH  10  12
ENDBRANCH   9  10
ENDBRANCH   1   9
BRANCH   1  14
ATOM     14  C   UNL     1      16.167  -4.280  10.800  0.00  0.00    +0.000 C 
BRANCH  14  15
ATOM     15  C   UNL     1      16.736  -4.133   9.369  0.00  0.00    +0.000 C 
ATOM     16  C   UNL     1      18.204  -4.528   9.264  0.00  0.00    +0.000 C 
BRANCH  15  17
ATOM     17  O   UNL     1      16.000  -4.912   8.426  0.00  0.00    +0.000 OA
ATOM     18  H   UNL     1      15.539  -5.588   8.963  0.00  0.00    +0.000 HD
ENDBRANCH  15  17
ENDBRANCH  14  15
ENDBRANCH   1  14
TORSDOF 7
ENDMDL
MODEL 6
REMARK VINA RESULT:    -5.198      1.699      2.533
REMARK INTER + INTRA:          -7.551
REMARK INTER:                  -6.803
REMARK INTRA:                  -0.748
REMARK UNBOUND:                -0.529
REMARK  Name = 
REMARK  10 active torsions:
REMARK  status: ('A' for Active; 'I' for Inactive)
REMARK    1  A    between atoms: C_1  and  C_2
REMARK    2  A    between atoms: C_5  and  N_8
REMARK    3  A    between atoms: N_8  and  C_9
REMARK    4  A    between atoms: N_8  and  C_13
REMARK    5  A    between atoms: C_9  and  C_10
REMARK    6  A    between atoms: C_10  and  C_11
REMARK    7  A    between atoms: C_10  and  O_12
REMARK    8  A    between atoms: C_13  and  C_14
REMARK    9  A    between atoms: C_14  and  C_15
REMARK   10  A    between atoms: C_14  and  O_16
REMARK                            x       y       z     vdW  Elec       q    Type
REMARK                         _______ _______ _______ _____ _____    ______ ____
ROOT
ATOM      1  N   UNL     1      15.319  -3.143  11.756  0.00  0.00    +0.000 N 
ENDROOT
BRANCH   1   6
ATOM      2  C   UNL     1       9.694  -3.614  12.968  0.00  0.00    +0.000 C 
ATOM      3  C   UNL     1      11.151  -3.467  12.652  0.00  0.00    +0.000 A 
ATOM      4  C   UNL     1      11.608  -3.532  11.340  0.00  0.00    +0.000 A 
ATOM      5  C   UNL     1      12.978  -3.423  11.052  0.00  0.00    +0.000 A 
ATOM      6  C   UNL     1      13.956  -3.270  12.052  0.00  0.00    +0.000 A 
ATOM      7  C   UNL     1      13.458  -3.207  13.366  0.00  0.00    +0.000 A 
ATOM      8  C   UNL     1      12.090  -3.312  13.668  0.00  0.00    +0.000 A 
ENDBRANCH   1   6
BRANCH   1   9
ATOM      9  C   UNL     1      15.780  -3.170  10.347  0.00  0.00    +0.000 C 
BRANCH   9  10
ATOM     10  C   UNL     1      15.987  -1.754   9.756  0.00  0.00    +0.000 C 
ATOM     11  C   UNL     1      15.258  -1.606   8.426  0.00  0.00    +0.000 C 
BRANCH  10  12
ATOM     12  O   UNL     1      15.492  -0.746  10.649  0.00  0.00    +0.000 OA
ATOM     13  H   UNL     1      16.183  -0.560  11.306  0.00  0.00    +0.000 HD
ENDBRANCH  10  12
ENDBRANCH   9  10
ENDBRANCH   1   9
BRANCH   1  14
ATOM     14  C   UNL     1      16.359  -3.488  12.759  0.00  0.00    +0.000 C 
BRANCH  14  15
ATOM     15  C   UNL     1      17.056  -2.231  13.333  0.00  0.00    +0.000 C 
ATOM     16  C   UNL     1      18.362  -1.894  12.623  0.00  0.00    +0.000 C 
BRANCH  15  17
ATOM     17  O   UNL     1      16.211  -1.084  13.270  0.00  0.00    +0.000 OA
ATOM     18  H   UNL     1      16.394  -0.682  12.397  0.00  0.00    +0.000 HD
ENDBRANCH  15  17
ENDBRANCH  14  15
ENDBRANCH   1  14
TORSDOF 7
ENDMDL
MODEL 7
REMARK VINA RESULT:    -5.118      1.244      3.316
REMARK INTER + INTRA:          -7.442
REMARK INTER:                  -7.016
REMARK INTRA:                  -0.426
REMARK UNBOUND:                -0.529
REMARK  Name = 
REMARK  10 active torsions:
REMARK  status: ('A' for Active; 'I' for Inactive)
REMARK    1  A    between atoms: C_1  and  C_2
REMARK    2  A    between atoms: C_5  and  N_8
REMARK    3  A    between atoms: N_8  and  C_9
REMARK    4  A    between atoms: N_8  and  C_13
REMARK    5  A    between atoms: C_9  and  C_10
REMARK    6  A    between atoms: C_10  and  C_11
REMARK    7  A    between atoms: C_10  and  O_12
REMARK    8  A    between atoms: C_13  and  C_14
REMARK    9  A    between atoms: C_14  and  C_15
REMARK   10  A    between atoms: C_14  and  O_16
REMARK                            x       y       z     vdW  Elec       q    Type
REMARK                         _______ _______ _______ _____ _____    ______ ____
ROOT
ATOM      1  N   UNL     1      13.649  -3.274  11.450  0.00  0.00    +0.000 N 
ENDROOT
BRANCH   1   6
ATOM      2  C   UNL     1       9.022  -6.640  12.215  0.00  0.00    +0.000 C 
ATOM      3  C   UNL     1      10.210  -5.748  12.025  0.00  0.00    +0.000 A 
ATOM      4  C   UNL     1      10.421  -5.086  10.821  0.00  0.00    +0.000 A 
ATOM      5  C   UNL     1      11.552  -4.273  10.638  0.00  0.00    +0.000 A 
ATOM      6  C   UNL     1      12.533  -4.101  11.632  0.00  0.00    +0.000 A 
ATOM      7  C   UNL     1      12.286  -4.783  12.837  0.00  0.00    +0.000 A 
ATOM      8  C   UNL     1      11.158  -5.597  13.033  0.00  0.00    +0.000 A 
ENDBRANCH   1   6
BRANCH   1   9
ATOM      9  C   UNL     1      14.754  -3.289  12.438  0.00  0.00    +0.000 C 
BRANCH   9  10
ATOM     10  C   UNL     1      14.565  -2.246  13.566  0.00  0.00    +0.000 C 
ATOM     11  C   UNL     1      14.980  -2.820  14.916  0.00  0.00    +0.000 C 
BRANCH  10  12
ATOM     12  O   UNL     1      15.355  -1.074  13.321  0.00  0.00    +0.000 OA
ATOM     13  H   UNL     1      16.139  -1.340  12.813  0.00  0.00    +0.000 HD
ENDBRANCH  10  12
ENDBRANCH   9  10
ENDBRANCH   1   9
BRANCH   1  14
ATOM     14  C   UNL     1      13.567  -2.042  10.624  0.00  0.00    +0.000 C 
BRANCH  14  15
ATOM     15  C   UNL     1      14.624  -2.025   9.494  0.00  0.00    +0.000 C 
ATOM     16  C   UNL     1      14.786  -3.374   8.804  0.00  0.00    +0.000 C 
BRANCH  15  17
ATOM     17  O   UNL     1      14.313  -1.053   8.497  0.00  0.00    +0.000 OA
ATOM     18  H   UNL     1      13.846  -0.339   8.976  0.00  0.00    +0.000 HD
ENDBRANCH  15  17
ENDBRANCH  14  15
ENDBRANCH   1  14
TORSDOF 7
ENDMDL
MODEL 8
REMARK VINA RESULT:    -5.052      1.189      3.223
REMARK INTER + INTRA:          -7.353
REMARK INTER:                  -6.970
REMARK INTRA:                  -0.383
REMARK UNBOUND:                -0.529
REMARK  Name = 
REMARK  10 active torsions:
REMARK  status: ('A' for Active; 'I' for Inactive)
REMARK    1  A    between atoms: C_1  and  C_2
REMARK    2  A    between atoms: C_5  and  N_8
REMARK    3  A    between atoms: N_8  and  C_9
REMARK    4  A    between atoms: N_8  and  C_13
REMARK    5  A    between atoms: C_9  and  C_10
REMARK    6  A    between atoms: C_10  and  C_11
REMARK    7  A    between atoms: C_10  and  O_12
REMARK    8  A    between atoms: C_13  and  C_14
REMARK    9  A    between atoms: C_14  and  C_15
REMARK   10  A    between atoms: C_14  and  O_16
REMARK                            x       y       z     vdW  Elec       q    Type
REMARK                         _______ _______ _______ _____ _____    ______ ____
ROOT
ATOM      1  N   UNL     1      14.521  -2.856  11.866  0.00  0.00    +0.000 N 
ENDROOT
BRANCH   1   6
ATOM      2  C   UNL     1       9.376  -5.424  12.376  0.00  0.00    +0.000 C 
ATOM      3  C   UNL     1      10.718  -4.776  12.228  0.00  0.00    +0.000 A 
ATOM      4  C   UNL     1      11.757  -5.075  13.104  0.00  0.00    +0.000 A 
ATOM      5  C   UNL     1      13.004  -4.442  12.978  0.00  0.00    +0.000 A 
ATOM      6  C   UNL     1      13.269  -3.470  11.997  0.00  0.00    +0.000 A 
ATOM      7  C   UNL     1      12.197  -3.193  11.129  0.00  0.00    +0.000 A 
ATOM      8  C   UNL     1      10.946  -3.821  11.241  0.00  0.00    +0.000 A 
ENDBRANCH   1   6
BRANCH   1   9
ATOM      9  C   UNL     1      15.484  -2.882  12.994  0.00  0.00    +0.000 C 
BRANCH   9  10
ATOM     10  C   UNL     1      14.940  -2.180  14.263  0.00  0.00    +0.000 C 
ATOM     11  C   UNL     1      15.741  -2.585  15.495  0.00  0.00    +0.000 C 
BRANCH  10  12
ATOM     12  O   UNL     1      15.015  -0.754  14.133  0.00  0.00    +0.000 OA
ATOM     13  H   UNL     1      15.057  -0.372  15.026  0.00  0.00    +0.000 HD
ENDBRANCH  10  12
ENDBRANCH   9  10
ENDBRANCH   1   9
BRANCH   1  14
ATOM     14  C   UNL     1      14.745  -1.769  10.879  0.00  0.00    +0.000 C 
BRANCH  14  15
ATOM     15  C   UNL     1      16.201  -1.243  10.909  0.00  0.00    +0.000 C 
ATOM     16  C   UNL     1      16.873  -1.260   9.541  0.00  0.00    +0.000 C 
BRANCH  15  17
ATOM     17  O   UNL     1      16.270   0.087  11.419  0.00  0.00    +0.000 OA
ATOM     18  H   UNL     1      16.333  -0.017  12.390  0.00  0.00    +0.000 HD
ENDBRANCH  15  17
ENDBRANCH  14  15
ENDBRANCH   1  14
TORSDOF 7
ENDMDL
MODEL 9
REMARK VINA RESULT:    -4.998      2.109      3.792
REMARK INTER + INTRA:          -7.280
REMARK INTER:                  -6.827
REMARK INTRA:                  -0.453
REMARK UNBOUND:                -0.529
REMARK  Name = 
REMARK  10 active torsions:
REMARK  status: ('A' for Active; 'I' for Inactive)
REMARK    1  A    between atoms: C_1  and  C_2
REMARK    2  A    between atoms: C_5  and  N_8
REMARK    3  A    between atoms: N_8  and  C_9
REMARK    4  A    between atoms: N_8  and  C_13
REMARK    5  A    between atoms: C_9  and  C_10
REMARK    6  A    between atoms: C_10  and  C_11
REMARK    7  A    between atoms: C_10  and  O_12
REMARK    8  A    between atoms: C_13  and  C_14
REMARK    9  A    between atoms: C_14  and  C_15
REMARK   10  A    between atoms: C_14  and  O_16
REMARK                            x       y       z     vdW  Elec       q    Type
REMARK                         _______ _______ _______ _____ _____    ______ ____
ROOT
ATOM      1  N   UNL     1      15.083  -2.895  11.269  0.00  0.00    +0.000 N 
ENDROOT
BRANCH   1   6
ATOM      2  C   UNL     1       9.633  -3.795  12.949  0.00  0.00    +0.000 C 
ATOM      3  C   UNL     1      11.043  -3.537  12.511  0.00  0.00    +0.000 A 
ATOM      4  C   UNL     1      11.394  -3.589  11.167  0.00  0.00    +0.000 A 
ATOM      5  C   UNL     1      12.723  -3.375  10.765  0.00  0.00    +0.000 A 
ATOM      6  C   UNL     1      13.763  -3.126  11.678  0.00  0.00    +0.000 A 
ATOM      7  C   UNL     1      13.371  -3.078  13.028  0.00  0.00    +0.000 A 
ATOM      8  C   UNL     1      12.046  -3.288  13.444  0.00  0.00    +0.000 A 
ENDBRANCH   1   6
BRANCH   1   9
ATOM      9  C   UNL     1      16.185  -3.726  11.809  0.00  0.00    +0.000 C 
BRANCH   9  10
ATOM     10  C   UNL     1      17.526  -2.957  11.902  0.00  0.00    +0.000 C 
ATOM     11  C   UNL     1      18.127  -3.077  13.298  0.00  0.00    +0.000 C 
BRANCH  10  12
ATOM     12  O   UNL     1      18.480  -3.471  10.962  0.00  0.00    +0.000 OA
ATOM     13  H   UNL     1      19.236  -3.823  11.461  0.00  0.00    +0.000 HD
ENDBRANCH  10  12
ENDBRANCH   9  10
ENDBRANCH   1   9
BRANCH   1  14
ATOM     14  C   UNL     1      15.502  -1.574  10.733  0.00  0.00    +0.000 C 
BRANCH  14  15
ATOM     15  C   UNL     1      15.475  -1.535   9.186  0.00  0.00    +0.000 C 
ATOM     16  C   UNL     1      15.658  -2.908   8.550  0.00  0.00    +0.000 C 
BRANCH  15  17
ATOM     17  O   UNL     1      14.258  -0.978   8.694  0.00  0.00    +0.000 OA
ATOM     18  H   UNL     1      13.602  -1.137   9.402  0.00  0.00    +0.000 HD
ENDBRANCH  15  17
ENDBRANCH  14  15
ENDBRANCH   1  14
TORSDOF 7
ENDMDL
