MODEL 1
REMARK VINA RESULT:    -5.524      0.000      0.000
REMARK INTER + INTRA:          -7.662
REMARK INTER:                  -7.461
REMARK INTRA:                  -0.201
REMARK UNBOUND:                -0.201
REMARK  Name = 
REMARK  10 active torsions:
REMARK  status: ('A' for Active; 'I' for Inactive)
REMARK    1  A    between atoms: C_1  and  C_2
REMARK    2  A    between atoms: C_5  and  N_8
REMARK    3  A    between atoms: N_8  and  C_9
REMARK    4  A    between atoms: N_8  and  C_13
REMARK    5  A    between atoms: C_9  and  C_10
REMARK    6  A    between atoms: C_10  and  C_11
REMARK    7  A    between atoms: C_10  and  O_12
REMARK    8  A    between atoms: C_13  and  C_14
REMARK    9  A    between atoms: C_14  and  C_15
REMARK   10  A    between atoms: C_14  and  O_16
REMARK                            x       y       z     vdW  Elec       q    Type
REMARK                         _______ _______ _______ _____ _____    ______ ____
ROOT
ATOM      1  N   UNL     1      12.014   5.316   2.413  0.00  0.00    +0.000 N 
ENDROOT
BRANCH   1   6
ATOM      2  C   UNL     1      16.275   7.047   5.902  0.00  0.00    +0.000 C 
ATOM      3  C   UNL     1      15.178   6.613   4.978  0.00  0.00    +0.000 A 
ATOM      4  C   UNL     1      13.948   7.263   4.975  0.00  0.00    +0.000 A 
ATOM      5  C   UNL     1      12.914   6.832   4.129  0.00  0.00    +0.000 A 
ATOM      6  C   UNL     1      13.044   5.728   3.268  0.00  0.00    +0.000 A 
ATOM      7  C   UNL     1      14.301   5.097   3.296  0.00  0.00    +0.000 A 
ATOM      8  C   UNL     1      15.345   5.518   4.136  0.00  0.00    +0.000 A 
ENDBRANCH   1   6
BRANCH   1   9
ATOM      9  C   UNL     1      11.044   4.287   2.859  0.00  0.00    +0.000 C 
BRANCH   9  10
ATOM     10  C   UNL     1      11.508   3.536   4.131  0.00  0.00    +0.000 C 
ATOM     11  C   UNL     1      10.751   4.026   5.359  0.00  0.00    +0.000 C 
BRANCH  10  12
ATOM     12  O   UNL     1      11.285   2.125   4.005  0.00  0.00    +0.000 OA
ATOM     13  H   UNL     1      11.926   1.775   3.364  0.00  0.00    +0.000 HD
ENDBRANCH  10  12
ENDBRANCH   9  10
ENDBRANCH   1   9
BRANCH   1  14
ATOM     14  C   UNL     1      12.132   5.467   0.940  0.00  0.00    +0.000 C 
BRANCH  14  15
ATOM     15  C   UNL     1      11.098   6.467   0.370  0.00  0.00    +0.000 C 
ATOM     16  C   UNL     1      10.680   7.535   1.374  0.00  0.00    +0.000 C 
BRANCH  15  17
ATOM     17  O   UNL     1      11.589   7.127  -0.796  0.00  0.00    +0.000 OA
ATOM     18  H   UNL     1      10.789   7.400  -1.288  0.00  0.00    +0.000 HD
ENDBRANCH  15  17
ENDBRANCH  14  15
ENDBRANCH   1  14
TORSDOF 7
ENDMDL
MODEL 2
REMARK VINA RESULT:    -5.434      2.146      5.283
REMARK INTER + INTRA:          -7.540
REMARK INTER:                  -7.213
REMARK INTRA:                  -0.327
REMARK UNBOUND:                -0.201
REMARK  Name = 
REMARK  10 active torsions:
REMARK  status: ('A' for Active; 'I' for Inactive)
REMARK    1  A    between atoms: C_1  and  C_2
REMARK    2  A    between atoms: C_5  and  N_8
REMARK    3  A    between atoms: N_8  and  C_9
REMARK    4  A    between atoms: N_8  and  C_13
REMARK    5  A    between atoms: C_9  and  C_10
REMARK    6  A    between atoms: C_10  and  C_11
REMARK    7  A    between atoms: C_10  and  O_12
REMARK    8  A    between atoms: C_13  and  C_14
REMARK    9  A    between atoms: C_14  and  C_15
REMARK   10  A    between atoms: C_14  and  O_16
REMARK                            x       y       z     vdW  Elec       q    Type
REMARK                         _______ _______ _______ _____ _____    ______ ____
ROOT
ATOM      1  N   UNL     1      13.189   5.532   4.266  0.00  0.00    +0.000 N 
ENDROOT
BRANCH   1   6
ATOM      2  C   UNL     1      10.653   6.732  -0.780  0.00  0.00    +0.000 C 
ATOM      3  C   UNL     1      11.330   6.435   0.523  0.00  0.00    +0.000 A 
ATOM      4  C   UNL     1      12.144   5.316   0.666  0.00  0.00    +0.000 A 
ATOM      5  C   UNL     1      12.753   5.026   1.898  0.00  0.00    +0.000 A 
ATOM      6  C   UNL     1      12.563   5.817   3.046  0.00  0.00    +0.000 A 
ATOM      7  C   UNL     1      11.736   6.940   2.864  0.00  0.00    +0.000 A 
ATOM      8  C   UNL     1      11.123   7.243   1.637  0.00  0.00    +0.000 A 
ENDBRANCH   1   6
BRANCH   1   9
ATOM      9  C   UNL     1      14.642   5.776   4.431  0.00  0.00    +0.000 C 
BRANCH   9  10
ATOM     10  C   UNL     1      14.949   6.933   5.414  0.00  0.00    +0.000 C 
ATOM     11  C   UNL     1      16.184   7.709   4.973  0.00  0.00    +0.000 C 
BRANCH  10  12
ATOM     12  O   UNL     1      13.850   7.851   5.487  0.00  0.00    +0.000 OA
ATOM     13  H   UNL     1      14.110   8.670   5.033  0.00  0.00    +0.000 HD
ENDBRANCH  10  12
ENDBRANCH   9  10
ENDBRANCH   1   9
BRANCH   1  14
ATOM     14  C   UNL     1      12.609   4.550   5.217  0.00  0.00    +0.000 C 
BRANCH  14  15
ATOM     15  C   UNL     1      11.155   4.168   4.848  0.00  0.00    +0.000 C 
ATOM     16  C   UNL     1      11.018   2.733   4.355  0.00  0.00    +0.000 C 
BRANCH  15  17
ATOM     17  O   UNL     1      10.268   4.342   5.953  0.00  0.00    +0.000 OA
ATOM     18  H   UNL     1      10.528   5.196   6.354  0.00  0.00    +0.000 HD
ENDBRANCH  15  17
ENDBRANCH  14  15
ENDBRANCH   1  14
TORSDOF 7
ENDMDL
MODEL 3
REMARK VINA RESULT:    -5.204      2.028      4.574
REMARK INTER + INTRA:          -7.230
REMARK INTER:                  -6.912
REMARK INTRA:                  -0.318
REMARK UNBOUND:                -0.201
REMARK  Name = 
REMARK  10 active torsions:
REMARK  status: ('A' for Active; 'I' for Inactive)
REMARK    1  A    between atoms: C_1  and  C_2
REMARK    2  A    between atoms: C_5  and  N_8
REMARK    3  A    between atoms: N_8  and  C_9
REMARK    4  A    between atoms: N_8  and  C_13
REMARK    5  A    between atoms: C_9  and  C_10
REMARK    6  A    between atoms: C_10  and  C_11
REMARK    7  A    between atoms: C_10  and  O_12
REMARK    8  A    between atoms: C_13  and  C_14
REMARK    9  A    between atoms: C_14  and  C_15
REMARK   10  A    between atoms: C_14  and  O_16
REMARK                            x       y       z     vdW  Elec       q    Type
REMARK                         _______ _______ _______ _____ _____    ______ ____
ROOT
ATOM      1  N   UNL     1      13.240   5.310   4.235  0.00  0.00    +0.000 N 
ENDROOT
BRANCH   1   6
ATOM      2  C   UNL     1      10.698   6.835  -0.718  0.00  0.00    +0.000 C 
ATOM      3  C   UNL     1      11.378   6.453   0.561  0.00  0.00    +0.000 A 
ATOM      4  C   UNL     1      12.147   5.297   0.643  0.00  0.00    +0.000 A 
ATOM      5  C   UNL     1      12.757   4.928   1.853  0.00  0.00    +0.000 A 
ATOM      6  C   UNL     1      12.613   5.673   3.037  0.00  0.00    +0.000 A 
ATOM      7  C   UNL     1      11.830   6.836   2.916  0.00  0.00    +0.000 A 
ATOM      8  C   UNL     1      11.216   7.219   1.712  0.00  0.00    +0.000 A 
ENDBRANCH   1   6
BRANCH   1   9
ATOM      9  C   UNL     1      12.519   4.479   5.230  0.00  0.00    +0.000 C 
BRANCH   9  10
ATOM     10  C   UNL     1      11.100   4.075   4.758  0.00  0.00    +0.000 C 
ATOM     11  C   UNL     1      11.079   2.632   4.270  0.00  0.00    +0.000 C 
BRANCH  10  12
ATOM     12  O   UNL     1      10.149   4.197   5.825  0.00  0.00    +0.000 OA
ATOM     13  H   UNL     1       9.285   3.903   5.493  0.00  0.00    +0.000 HD
ENDBRANCH  10  12
ENDBRANCH   9  10
ENDBRANCH   1   9
BRANCH   1  14
ATOM     14  C   UNL     1      14.366   6.107   4.787  0.00  0.00    +0.000 C 
BRANCH  14  15
ATOM     15  C   UNL     1      15.704   5.798   4.073  0.00  0.00    +0.000 C 
ATOM     16  C   UNL     1      15.835   4.341   3.647  0.00  0.00    +0.000 C 
BRANCH  15  17
ATOM     17  O   UNL     1      15.886   6.614   2.917  0.00  0.00    +0.000 OA
ATOM     18  H   UNL     1      16.191   6.000   2.219  0.00  0.00    +0.000 HD
ENDBRANCH  15  17
ENDBRANCH  14  15
ENDBRANCH   1  14
TORSDOF 7
ENDMDL
MODEL 4
REMARK VINA RESULT:    -4.163      2.123      3.948
REMARK INTER + INTRA:          -5.823
REMARK INTER:                  -5.684
REMARK INTRA:                  -0.139
REMARK UNBOUND:                -0.201
REMARK  Name = 
REMARK  10 active torsions:
REMARK  status: ('A' for Active; 'I' for Inactive)
REMARK    1  A    between atoms: C_1  and  C_2
REMARK    2  A    between atoms: C_5  and  N_8
REMARK    3  A    between atoms: N_8  and  C_9
REMARK    4  A    between atoms: N_8  and  C_13
REMARK    5  A    between atoms: C_9  and  C_10
REMARK    6  A    between atoms: C_10  and  C_11
REMARK    7  A    between atoms: C_10  and  O_12
REMARK    8  A    between atoms: C_13  and  C_14
REMARK    9  A    between atoms: C_14  and  C_15
REMARK   10  A    between atoms: C_14  and  O_16
REMARK                            x       y       z     vdW  Elec       q    Type
REMARK                         _______ _______ _______ _____ _____    ______ ____
ROOT
ATOM      1  N   UNL     1      13.103   5.826   2.692  0.00  0.00    +0.000 N 
ENDROOT
BRANCH   1   6
ATOM      2  C   UNL     1      10.610   2.025   6.251  0.00  0.00    +0.000 C 
ATOM      3  C   UNL     1      11.279   3.000   5.332  0.00  0.00    +0.000 A 
ATOM      4  C   UNL     1      11.770   4.211   5.809  0.00  0.00    +0.000 A 
ATOM      5  C   UNL     1      12.370   5.134   4.937  0.00  0.00    +0.000 A 
ATOM      6  C   UNL     1      12.487   4.909   3.553  0.00  0.00    +0.000 A 
ATOM      7  C   UNL     1      11.981   3.675   3.106  0.00  0.00    +0.000 A 
ATOM      8  C   UNL     1      11.382   2.741   3.968  0.00  0.00    +0.000 A 
ENDBRANCH   1   6
BRANCH   1   9
ATOM      9  C   UNL     1      14.544   6.139   2.847  0.00  0.00    +0.000 C 
BRANCH   9  10
ATOM     10  C   UNL     1      15.310   5.058   3.649  0.00  0.00    +0.000 C 
ATOM     11  C   UNL     1      16.087   4.137   2.717  0.00  0.00    +0.000 C 
BRANCH  10  12
ATOM     12  O   UNL     1      16.242   5.657   4.560  0.00  0.00    +0.000 OA
ATOM     13  H   UNL     1      16.486   4.990   5.223  0.00  0.00    +0.000 HD
ENDBRANCH  10  12
ENDBRANCH   9  10
ENDBRANCH   1   9
BRANCH   1  14
ATOM     14  C   UNL     1      12.312   6.862   1.978  0.00  0.00    +0.000 C 
BRANCH  14  15
ATOM     15  C   UNL     1      11.449   6.259   0.844  0.00  0.00    +0.000 C 
ATOM     16  C   UNL     1      10.164   7.039   0.589  0.00  0.00    +0.000 C 
BRANCH  15  17
ATOM     17  O   UNL     1      12.170   6.183  -0.384  0.00  0.00    +0.000 OA
ATOM     18  H   UNL     1      12.892   5.545  -0.214  0.00  0.00    +0.000 HD
ENDBRANCH  15  17
ENDBRANCH  14  15
ENDBRANCH   1  14
TORSDOF 7
ENDMDL
MODEL 5
REMARK VINA RESULT:    -4.122     15.428     18.255
REMARK INTER + INTRA:          -5.768
REMARK INTER:                  -5.346
REMARK INTRA:                  -0.422
REMARK UNBOUND:                -0.201
REMARK  Name = 
REMARK  10 active torsions:
REMARK  status: ('A' for Active; 'I' for Inactive)
REMARK    1  A    between atoms: C_1  and  C_2
REMARK    2  A    between atoms: C_5  and  N_8
REMARK    3  A    between atoms: N_8  and  C_9
REMARK    4  A    between atoms: N_8  and  C_13
REMARK    5  A    between atoms: C_9  and  C_10
REMARK    6  A    between atoms: C_10  and  C_11
REMARK    7  A    between atoms: C_10  and  O_12
REMARK    8  A    between atoms: C_13  and  C_14
REMARK    9  A    between atoms: C_14  and  C_15
REMARK   10  A    between atoms: C_14  and  O_16
REMARK                            x       y       z     vdW  Elec       q    Type
REMARK                         _______ _______ _______ _____ _____    ______ ____
ROOT
ATOM      1  N   UNL     1       9.977 -10.843   9.114  0.00  0.00    +0.000 N 
ENDROOT
BRANCH   1   6
ATOM      2  C   UNL     1       5.484 -12.357   5.821  0.00  0.00    +0.000 C 
ATOM      3  C   UNL     1       6.661 -11.985   6.669  0.00  0.00    +0.000 A 
ATOM      4  C   UNL     1       6.715 -12.340   8.013  0.00  0.00    +0.000 A 
ATOM      5  C   UNL     1       7.808 -11.963   8.810  0.00  0.00    +0.000 A 
ATOM      6  C   UNL     1       8.881 -11.199   8.318  0.00  0.00    +0.000 A 
ATOM      7  C   UNL     1       8.795 -10.860   6.955  0.00  0.00    +0.000 A 
ATOM      8  C   UNL     1       7.709 -11.233   6.146  0.00  0.00    +0.000 A 
ENDBRANCH   1   6
BRANCH   1   9
ATOM      9  C   UNL     1      10.972 -11.868   9.512  0.00  0.00    +0.000 C 
BRANCH   9  10
ATOM     10  C   UNL     1      12.207 -11.263  10.223  0.00  0.00    +0.000 C 
ATOM     11  C   UNL     1      13.067 -12.355  10.846  0.00  0.00    +0.000 C 
BRANCH  10  12
ATOM     12  O   UNL     1      13.022 -10.527   9.300  0.00  0.00    +0.000 OA
ATOM     13  H   UNL     1      12.434 -10.020   8.716  0.00  0.00    +0.000 HD
ENDBRANCH  10  12
ENDBRANCH   9  10
ENDBRANCH   1   9
BRANCH   1  14
ATOM     14  C   UNL     1       9.935  -9.642   9.988  0.00  0.00    +0.000 C 
BRANCH  14  15
ATOM     15  C   UNL     1      10.318  -8.351   9.225  0.00  0.00    +0.000 C 
ATOM     16  C   UNL     1       9.616  -7.108   9.759  0.00  0.00    +0.000 C 
BRANCH  15  17
ATOM     17  O   UNL     1      11.724  -8.114   9.262  0.00  0.00    +0.000 OA
ATOM     18  H   UNL     1      11.928  -7.948  10.204  0.00  0.00    +0.000 HD
ENDBRANCH  15  17
ENDBRANCH  14  15
ENDBRANCH   1  14
TORSDOF 7
ENDMDL
MODEL 6
REMARK VINA RESULT:    -4.063      2.109      4.862
REMARK INTER + INTRA:          -5.688
REMARK INTER:                  -5.606
REMARK INTRA:                  -0.083
REMARK UNBOUND:                -0.201
REMARK  Name = 
REMARK  10 active torsions:
REMARK  status: ('A' for Active; 'I' for Inactive)
REMARK    1  A    between atoms: C_1  and  C_2
REMARK    2  A    between atoms: C_5  and  N_8
REMARK    3  A    between atoms: N_8  and  C_9
REMARK    4  A    between atoms: N_8  and  C_13
REMARK    5  A    between atoms: C_9  and  C_10
REMARK    6  A    between atoms: C_10  and  C_11
REMARK    7  A    between atoms: C_10  and  O_12
REMARK    8  A    between atoms: C_13  and  C_14
REMARK    9  A    between atoms: C_14  and  C_15
REMARK   10  A    between atoms: C_14  and  O_16
REMARK                            x       y       z     vdW  Elec       q    Type
REMARK                         _______ _______ _______ _____ _____    ______ ____
ROOT
ATOM      1  N   UNL     1      12.939   5.770   2.580  0.00  0.00    +0.000 N 
ENDROOT
BRANCH   1   6
ATOM      2  C   UNL     1      10.677   2.047   6.368  0.00  0.00    +0.000 C 
ATOM      3  C   UNL     1      11.241   3.024   5.383  0.00  0.00    +0.000 A 
ATOM      4  C   UNL     1      11.267   2.734   4.023  0.00  0.00    +0.000 A 
ATOM      5  C   UNL     1      11.825   3.641   3.108  0.00  0.00    +0.000 A 
ATOM      6  C   UNL     1      12.402   4.862   3.501  0.00  0.00    +0.000 A 
ATOM      7  C   UNL     1      12.356   5.124   4.883  0.00  0.00    +0.000 A 
ATOM      8  C   UNL     1      11.799   4.227   5.809  0.00  0.00    +0.000 A 
ENDBRANCH   1   6
BRANCH   1   9
ATOM      9  C   UNL     1      12.513   5.730   1.161  0.00  0.00    +0.000 C 
BRANCH   9  10
ATOM     10  C   UNL     1      11.526   6.866   0.798  0.00  0.00    +0.000 C 
ATOM     11  C   UNL     1      11.018   6.711  -0.631  0.00  0.00    +0.000 C 
BRANCH  10  12
ATOM     12  O   UNL     1      10.391   6.863   1.676  0.00  0.00    +0.000 OA
ATOM     13  H   UNL     1      10.707   7.042   2.577  0.00  0.00    +0.000 HD
ENDBRANCH  10  12
ENDBRANCH   9  10
ENDBRANCH   1   9
BRANCH   1  14
ATOM     14  C   UNL     1      14.252   6.421   2.819  0.00  0.00    +0.000 C 
BRANCH  14  15
ATOM     15  C   UNL     1      15.170   5.569   3.728  0.00  0.00    +0.000 C 
ATOM     16  C   UNL     1      15.924   4.483   2.969  0.00  0.00    +0.000 C 
BRANCH  15  17
ATOM     17  O   UNL     1      16.128   6.374   4.414  0.00  0.00    +0.000 OA
ATOM     18  H   UNL     1      15.753   7.277   4.402  0.00  0.00    +0.000 HD
ENDBRANCH  15  17
ENDBRANCH  14  15
ENDBRANCH   1  14
TORSDOF 7
ENDMDL
MODEL 7
REMARK VINA RESULT:    -3.601     15.553     18.567
REMARK INTER + INTRA:          -5.065
REMARK INTER:                  -6.021
REMARK INTRA:                   0.957
REMARK UNBOUND:                -0.201
REMARK  Name = 
REMARK  10 active torsions:
REMARK  status: ('A' for Active; 'I' for Inactive)
REMARK    1  A    between atoms: C_1  and  C_2
REMARK    2  A    between atoms: C_5  and  N_8
REMARK    3  A    between atoms: N_8  and  C_9
REMARK    4  A    between atoms: N_8  and  C_13
REMARK    5  A    between atoms: C_9  and  C_10
REMARK    6  A    between atoms: C_10  and  C_11
REMARK    7  A    between atoms: C_10  and  O_12
REMARK    8  A    between atoms: C_13  and  C_14
REMARK    9  A    between atoms: C_14  and  C_15
REMARK   10  A    between atoms: C_14  and  O_16
REMARK                            x       y       z     vdW  Elec       q    Type
REMARK                         _______ _______ _______ _____ _____    ______ ____
ROOT
ATOM      1  N   UNL     1       9.704 -10.906   8.895  0.00  0.00    +0.000 N 
ENDROOT
BRANCH   1   6
ATOM      2  C   UNL     1       4.839 -12.357   6.146  0.00  0.00    +0.000 C 
ATOM      3  C   UNL     1       6.098 -11.956   6.853  0.00  0.00    +0.000 A 
ATOM      4  C   UNL     1       7.321 -11.958   6.191  0.00  0.00    +0.000 A 
ATOM      5  C   UNL     1       8.502 -11.611   6.867  0.00  0.00    +0.000 A 
ATOM      6  C   UNL     1       8.526 -11.270   8.231  0.00  0.00    +0.000 A 
ATOM      7  C   UNL     1       7.271 -11.277   8.868  0.00  0.00    +0.000 A 
ATOM      8  C   UNL     1       6.082 -11.620   8.204  0.00  0.00    +0.000 A 
ENDBRANCH   1   6
BRANCH   1   9
ATOM      9  C   UNL     1      10.256  -9.539   8.734  0.00  0.00    +0.000 C 
BRANCH   9  10
ATOM     10  C   UNL     1       9.943  -8.620   9.940  0.00  0.00    +0.000 C 
ATOM     11  C   UNL     1       9.917  -7.156   9.518  0.00  0.00    +0.000 C 
BRANCH  10  12
ATOM     12  O   UNL     1       8.668  -8.940  10.514  0.00  0.00    +0.000 OA
ATOM     13  H   UNL     1       8.813  -9.574  11.235  0.00  0.00    +0.000 HD
ENDBRANCH  10  12
ENDBRANCH   9  10
ENDBRANCH   1   9
BRANCH   1  14
ATOM     14  C   UNL     1      10.689 -11.929   9.330  0.00  0.00    +0.000 C 
BRANCH  14  15
ATOM     15  C   UNL     1      11.889 -11.303  10.081  0.00  0.00    +0.000 C 
ATOM     16  C   UNL     1      12.846 -12.341  10.655  0.00  0.00    +0.000 C 
BRANCH  15  17
ATOM     17  O   UNL     1      12.639 -10.429   9.239  0.00  0.00    +0.000 OA
ATOM     18  H   UNL     1      12.059  -9.653   9.098  0.00  0.00    +0.000 HD
ENDBRANCH  15  17
ENDBRANCH  14  15
ENDBRANCH   1  14
TORSDOF 7
ENDMDL
