MODEL 1
REMARK VINA RESULT:    -5.765      0.000      0.000
REMARK INTER + INTRA:          -8.154
REMARK INTER:                  -7.788
REMARK INTRA:                  -0.367
REMARK UNBOUND:                -0.367
REMARK  Name = 
REMARK  10 active torsions:
REMARK  status: ('A' for Active; 'I' for Inactive)
REMARK    1  A    between atoms: C_1  and  C_2
REMARK    2  A    between atoms: C_5  and  N_8
REMARK    3  A    between atoms: N_8  and  C_9
REMARK    4  A    between atoms: N_8  and  C_13
REMARK    5  A    between atoms: C_9  and  C_10
REMARK    6  A    between atoms: C_10  and  C_11
REMARK    7  A    between atoms: C_10  and  O_12
REMARK    8  A    between atoms: C_13  and  C_14
REMARK    9  A    between atoms: C_14  and  C_15
REMARK   10  A    between atoms: C_14  and  O_16
REMARK                            x       y       z     vdW  Elec       q    Type
REMARK                         _______ _______ _______ _____ _____    ______ ____
ROOT
ATOM      1  N   UNL     1      12.215   4.734   2.569  0.00  0.00    +0.000 N 
ENDROOT
BRANCH   1   6
ATOM      2  C   UNL     1      16.276   7.399   5.689  0.00  0.00    +0.000 C 
ATOM      3  C   UNL     1      15.218   6.692   4.899  0.00  0.00    +0.000 A 
ATOM      4  C   UNL     1      15.536   5.610   4.086  0.00  0.00    +0.000 A 
ATOM      5  C   UNL     1      14.545   4.970   3.324  0.00  0.00    +0.000 A 
ATOM      6  C   UNL     1      13.202   5.389   3.317  0.00  0.00    +0.000 A 
ATOM      7  C   UNL     1      12.916   6.484   4.151  0.00  0.00    +0.000 A 
ATOM      8  C   UNL     1      13.897   7.132   4.920  0.00  0.00    +0.000 A 
ENDBRANCH   1   6
BRANCH   1   9
ATOM      9  C   UNL     1      12.009   5.083   1.143  0.00  0.00    +0.000 C 
BRANCH   9  10
ATOM     10  C   UNL     1      11.650   6.575   0.936  0.00  0.00    +0.000 C 
ATOM     11  C   UNL     1      11.381   6.872  -0.535  0.00  0.00    +0.000 C 
BRANCH  10  12
ATOM     12  O   UNL     1      10.478   6.931   1.682  0.00  0.00    +0.000 OA
ATOM     13  H   UNL     1      10.763   7.274   2.546  0.00  0.00    +0.000 HD
ENDBRANCH  10  12
ENDBRANCH   9  10
ENDBRANCH   1   9
BRANCH   1  14
ATOM     14  C   UNL     1      11.050   4.092   3.230  0.00  0.00    +0.000 C 
BRANCH  14  15
ATOM     15  C   UNL     1      11.478   3.123   4.358  0.00  0.00    +0.000 C 
ATOM     16  C   UNL     1      11.022   3.572   5.741  0.00  0.00    +0.000 C 
BRANCH  15  17
ATOM     17  O   UNL     1      10.981   1.804   4.136  0.00  0.00    +0.000 OA
ATOM     18  H   UNL     1      10.731   1.784   3.190  0.00  0.00    +0.000 HD
ENDBRANCH  15  17
ENDBRANCH  14  15
ENDBRANCH   1  14
TORSDOF 7
ENDMDL
MODEL 2
REMARK VINA RESULT:    -5.331      1.852      4.437
REMARK INTER + INTRA:          -7.568
REMARK INTER:                  -7.270
REMARK INTRA:                  -0.297
REMARK UNBOUND:                -0.367
REMARK  Name = 
REMARK  10 active torsions:
REMARK  status: ('A' for Active; 'I' for Inactive)
REMARK    1  A    between atoms: C_1  and  C_2
REMARK    2  A    between atoms: C_5  and  N_8
REMARK    3  A    between atoms: N_8  and  C_9
REMARK    4  A    between atoms: N_8  and  C_13
REMARK    5  A    between atoms: C_9  and  C_10
REMARK    6  A    between atoms: C_10  and  C_11
REMARK    7  A    between atoms: C_10  and  O_12
REMARK    8  A    between atoms: C_13  and  C_14
REMARK    9  A    between atoms: C_14  and  C_15
REMARK   10  A    between atoms: C_14  and  O_16
REMARK                            x       y       z     vdW  Elec       q    Type
REMARK                         _______ _______ _______ _____ _____    ______ ____
ROOT
ATOM      1  N   UNL     1      13.139   5.522   4.295  0.00  0.00    +0.000 N 
ENDROOT
BRANCH   1   6
ATOM      2  C   UNL     1      10.722   6.729  -0.807  0.00  0.00    +0.000 C 
ATOM      3  C   UNL     1      11.369   6.430   0.511  0.00  0.00    +0.000 A 
ATOM      4  C   UNL     1      12.188   5.317   0.668  0.00  0.00    +0.000 A 
ATOM      5  C   UNL     1      12.767   5.025   1.914  0.00  0.00    +0.000 A 
ATOM      6  C   UNL     1      12.542   5.808   3.061  0.00  0.00    +0.000 A 
ATOM      7  C   UNL     1      11.711   6.926   2.864  0.00  0.00    +0.000 A 
ATOM      8  C   UNL     1      11.127   7.231   1.623  0.00  0.00    +0.000 A 
ENDBRANCH   1   6
BRANCH   1   9
ATOM      9  C   UNL     1      14.596   5.725   4.481  0.00  0.00    +0.000 C 
BRANCH   9  10
ATOM     10  C   UNL     1      14.920   6.878   5.463  0.00  0.00    +0.000 C 
ATOM     11  C   UNL     1      16.243   7.544   5.103  0.00  0.00    +0.000 C 
BRANCH  10  12
ATOM     12  O   UNL     1      13.895   7.881   5.436  0.00  0.00    +0.000 OA
ATOM     13  H   UNL     1      13.259   7.680   6.142  0.00  0.00    +0.000 HD
ENDBRANCH  10  12
ENDBRANCH   9  10
ENDBRANCH   1   9
BRANCH   1  14
ATOM     14  C   UNL     1      12.514   4.569   5.248  0.00  0.00    +0.000 C 
BRANCH  14  15
ATOM     15  C   UNL     1      11.105   4.123   4.790  0.00  0.00    +0.000 C 
ATOM     16  C   UNL     1      11.074   2.701   4.245  0.00  0.00    +0.000 C 
BRANCH  15  17
ATOM     17  O   UNL     1      10.154   4.211   5.850  0.00  0.00    +0.000 OA
ATOM     18  H   UNL     1       9.783   5.114   5.783  0.00  0.00    +0.000 HD
ENDBRANCH  15  17
ENDBRANCH  14  15
ENDBRANCH   1  14
TORSDOF 7
ENDMDL
MODEL 3
REMARK VINA RESULT:    -5.090      1.915      4.901
REMARK INTER + INTRA:          -7.242
REMARK INTER:                  -6.935
REMARK INTRA:                  -0.307
REMARK UNBOUND:                -0.367
REMARK  Name = 
REMARK  10 active torsions:
REMARK  status: ('A' for Active; 'I' for Inactive)
REMARK    1  A    between atoms: C_1  and  C_2
REMARK    2  A    between atoms: C_5  and  N_8
REMARK    3  A    between atoms: N_8  and  C_9
REMARK    4  A    between atoms: N_8  and  C_13
REMARK    5  A    between atoms: C_9  and  C_10
REMARK    6  A    between atoms: C_10  and  C_11
REMARK    7  A    between atoms: C_10  and  O_12
REMARK    8  A    between atoms: C_13  and  C_14
REMARK    9  A    between atoms: C_14  and  C_15
REMARK   10  A    between atoms: C_14  and  O_16
REMARK                            x       y       z     vdW  Elec       q    Type
REMARK                         _______ _______ _______ _____ _____    ______ ____
ROOT
ATOM      1  N   UNL     1      13.234   5.342   4.251  0.00  0.00    +0.000 N 
ENDROOT
BRANCH   1   6
ATOM      2  C   UNL     1      10.698   6.817  -0.722  0.00  0.00    +0.000 C 
ATOM      3  C   UNL     1      11.377   6.448   0.562  0.00  0.00    +0.000 A 
ATOM      4  C   UNL     1      12.132   5.284   0.662  0.00  0.00    +0.000 A 
ATOM      5  C   UNL     1      12.740   4.927   1.876  0.00  0.00    +0.000 A 
ATOM      6  C   UNL     1      12.608   5.694   3.048  0.00  0.00    +0.000 A 
ATOM      7  C   UNL     1      11.840   6.864   2.910  0.00  0.00    +0.000 A 
ATOM      8  C   UNL     1      11.227   7.234   1.701  0.00  0.00    +0.000 A 
ENDBRANCH   1   6
BRANCH   1   9
ATOM      9  C   UNL     1      12.506   4.533   5.258  0.00  0.00    +0.000 C 
BRANCH   9  10
ATOM     10  C   UNL     1      11.102   4.094   4.776  0.00  0.00    +0.000 C 
ATOM     11  C   UNL     1      11.117   2.646   4.301  0.00  0.00    +0.000 C 
BRANCH  10  12
ATOM     12  O   UNL     1      10.137   4.206   5.830  0.00  0.00    +0.000 OA
ATOM     13  H   UNL     1       9.335   4.614   5.463  0.00  0.00    +0.000 HD
ENDBRANCH  10  12
ENDBRANCH   9  10
ENDBRANCH   1   9
BRANCH   1  14
ATOM     14  C   UNL     1      14.368   6.137   4.789  0.00  0.00    +0.000 C 
BRANCH  14  15
ATOM     15  C   UNL     1      15.697   5.824   4.061  0.00  0.00    +0.000 C 
ATOM     16  C   UNL     1      15.827   4.362   3.651  0.00  0.00    +0.000 C 
BRANCH  15  17
ATOM     17  O   UNL     1      15.860   6.627   2.893  0.00  0.00    +0.000 OA
ATOM     18  H   UNL     1      16.325   6.051   2.253  0.00  0.00    +0.000 HD
ENDBRANCH  15  17
ENDBRANCH  14  15
ENDBRANCH   1  14
TORSDOF 7
ENDMDL
MODEL 4
REMARK VINA RESULT:    -3.952      1.912      4.015
REMARK INTER + INTRA:          -5.705
REMARK INTER:                  -5.684
REMARK INTRA:                  -0.021
REMARK UNBOUND:                -0.367
REMARK  Name = 
REMARK  10 active torsions:
REMARK  status: ('A' for Active; 'I' for Inactive)
REMARK    1  A    between atoms: C_1  and  C_2
REMARK    2  A    between atoms: C_5  and  N_8
REMARK    3  A    between atoms: N_8  and  C_9
REMARK    4  A    between atoms: N_8  and  C_13
REMARK    5  A    between atoms: C_9  and  C_10
REMARK    6  A    between atoms: C_10  and  C_11
REMARK    7  A    between atoms: C_10  and  O_12
REMARK    8  A    between atoms: C_13  and  C_14
REMARK    9  A    between atoms: C_14  and  C_15
REMARK   10  A    between atoms: C_14  and  O_16
REMARK                            x       y       z     vdW  Elec       q    Type
REMARK                         _______ _______ _______ _____ _____    ______ ____
ROOT
ATOM      1  N   UNL     1      12.883   5.717   2.477  0.00  0.00    +0.000 N 
ENDROOT
BRANCH   1   6
ATOM      2  C   UNL     1      10.676   2.107   6.404  0.00  0.00    +0.000 C 
ATOM      3  C   UNL     1      11.226   3.054   5.382  0.00  0.00    +0.000 A 
ATOM      4  C   UNL     1      11.284   2.700   4.038  0.00  0.00    +0.000 A 
ATOM      5  C   UNL     1      11.828   3.580   3.088  0.00  0.00    +0.000 A 
ATOM      6  C   UNL     1      12.360   4.837   3.432  0.00  0.00    +0.000 A 
ATOM      7  C   UNL     1      12.283   5.162   4.798  0.00  0.00    +0.000 A 
ATOM      8  C   UNL     1      11.739   4.292   5.758  0.00  0.00    +0.000 A 
ENDBRANCH   1   6
BRANCH   1   9
ATOM      9  C   UNL     1      12.397   5.671   1.077  0.00  0.00    +0.000 C 
BRANCH   9  10
ATOM     10  C   UNL     1      11.519   6.890   0.706  0.00  0.00    +0.000 C 
ATOM     11  C   UNL     1      10.990   6.769  -0.719  0.00  0.00    +0.000 C 
BRANCH  10  12
ATOM     12  O   UNL     1      10.394   7.002   1.588  0.00  0.00    +0.000 OA
ATOM     13  H   UNL     1      10.438   7.870   2.024  0.00  0.00    +0.000 HD
ENDBRANCH  10  12
ENDBRANCH   9  10
ENDBRANCH   1   9
BRANCH   1  14
ATOM     14  C   UNL     1      14.224   6.333   2.652  0.00  0.00    +0.000 C 
BRANCH  14  15
ATOM     15  C   UNL     1      15.052   5.626   3.751  0.00  0.00    +0.000 C 
ATOM     16  C   UNL     1      16.031   4.598   3.197  0.00  0.00    +0.000 C 
BRANCH  15  17
ATOM     17  O   UNL     1      15.791   6.560   4.538  0.00  0.00    +0.000 OA
ATOM     18  H   UNL     1      16.331   7.061   3.894  0.00  0.00    +0.000 HD
ENDBRANCH  15  17
ENDBRANCH  14  15
ENDBRANCH   1  14
TORSDOF 7
ENDMDL
MODEL 5
REMARK VINA RESULT:    -3.880     14.968     18.193
REMARK INTER + INTRA:          -5.608
REMARK INTER:                  -5.271
REMARK INTRA:                  -0.337
REMARK UNBOUND:                -0.367
REMARK  Name = 
REMARK  10 active torsions:
REMARK  status: ('A' for Active; 'I' for Inactive)
REMARK    1  A    between atoms: C_1  and  C_2
REMARK    2  A    between atoms: C_5  and  N_8
REMARK    3  A    between atoms: N_8  and  C_9
REMARK    4  A    between atoms: N_8  and  C_13
REMARK    5  A    between atoms: C_9  and  C_10
REMARK    6  A    between atoms: C_10  and  C_11
REMARK    7  A    between atoms: C_10  and  O_12
REMARK    8  A    between atoms: C_13  and  C_14
REMARK    9  A    between atoms: C_14  and  C_15
REMARK   10  A    between atoms: C_14  and  O_16
REMARK                            x       y       z     vdW  Elec       q    Type
REMARK                         _______ _______ _______ _____ _____    ______ ____
ROOT
ATOM      1  N   UNL     1       9.945 -10.853   9.188  0.00  0.00    +0.000 N 
ENDROOT
BRANCH   1   6
ATOM      2  C   UNL     1       5.491 -12.328   5.824  0.00  0.00    +0.000 C 
ATOM      3  C   UNL     1       6.635 -11.924   6.703  0.00  0.00    +0.000 A 
ATOM      4  C   UNL     1       7.721 -11.226   6.186  0.00  0.00    +0.000 A 
ATOM      5  C   UNL     1       8.805 -10.876   7.008  0.00  0.00    +0.000 A 
ATOM      6  C   UNL     1       8.870 -11.222   8.370  0.00  0.00    +0.000 A 
ATOM      7  C   UNL     1       7.754 -11.925   8.859  0.00  0.00    +0.000 A 
ATOM      8  C   UNL     1       6.663 -12.279   8.048  0.00  0.00    +0.000 A 
ENDBRANCH   1   6
BRANCH   1   9
ATOM      9  C   UNL     1      10.899 -11.880   9.671  0.00  0.00    +0.000 C 
BRANCH   9  10
ATOM     10  C   UNL     1      12.199 -11.267  10.248  0.00  0.00    +0.000 C 
ATOM     11  C   UNL     1      13.137 -12.357  10.753  0.00  0.00    +0.000 C 
BRANCH  10  12
ATOM     12  O   UNL     1      12.896 -10.507   9.252  0.00  0.00    +0.000 OA
ATOM     13  H   UNL     1      12.972 -11.055   8.453  0.00  0.00    +0.000 HD
ENDBRANCH  10  12
ENDBRANCH   9  10
ENDBRANCH   1   9
BRANCH   1  14
ATOM     14  C   UNL     1       9.900  -9.611  10.002  0.00  0.00    +0.000 C 
BRANCH  14  15
ATOM     15  C   UNL     1      10.292  -8.359   9.180  0.00  0.00    +0.000 C 
ATOM     16  C   UNL     1       9.553  -7.100   9.617  0.00  0.00    +0.000 C 
BRANCH  15  17
ATOM     17  O   UNL     1      11.693  -8.098   9.254  0.00  0.00    +0.000 OA
ATOM     18  H   UNL     1      12.014  -8.183   8.333  0.00  0.00    +0.000 HD
ENDBRANCH  15  17
ENDBRANCH  14  15
ENDBRANCH   1  14
TORSDOF 7
ENDMDL
MODEL 6
REMARK VINA RESULT:    -3.523     15.299     18.324
REMARK INTER + INTRA:          -5.125
REMARK INTER:                  -4.880
REMARK INTRA:                  -0.245
REMARK UNBOUND:                -0.367
REMARK  Name = 
REMARK  10 active torsions:
REMARK  status: ('A' for Active; 'I' for Inactive)
REMARK    1  A    between atoms: C_1  and  C_2
REMARK    2  A    between atoms: C_5  and  N_8
REMARK    3  A    between atoms: N_8  and  C_9
REMARK    4  A    between atoms: N_8  and  C_13
REMARK    5  A    between atoms: C_9  and  C_10
REMARK    6  A    between atoms: C_10  and  C_11
REMARK    7  A    between atoms: C_10  and  O_12
REMARK    8  A    between atoms: C_13  and  C_14
REMARK    9  A    between atoms: C_14  and  C_15
REMARK   10  A    between atoms: C_14  and  O_16
REMARK                            x       y       z     vdW  Elec       q    Type
REMARK                         _______ _______ _______ _____ _____    ______ ____
ROOT
ATOM      1  N   UNL     1      10.063 -11.173   9.145  0.00  0.00    +0.000 N 
ENDROOT
BRANCH   1   6
ATOM      2  C   UNL     1       5.353 -12.215   5.973  0.00  0.00    +0.000 C 
ATOM      3  C   UNL     1       6.565 -11.923   6.804  0.00  0.00    +0.000 A 
ATOM      4  C   UNL     1       7.658 -11.254   6.263  0.00  0.00    +0.000 A 
ATOM      5  C   UNL     1       8.804 -11.010   7.038  0.00  0.00    +0.000 A 
ATOM      6  C   UNL     1       8.925 -11.437   8.372  0.00  0.00    +0.000 A 
ATOM      7  C   UNL     1       7.801 -12.108   8.887  0.00  0.00    +0.000 A 
ATOM      8  C   UNL     1       6.648 -12.357   8.124  0.00  0.00    +0.000 A 
ENDBRANCH   1   6
BRANCH   1   9
ATOM      9  C   UNL     1      10.778  -9.882   8.999  0.00  0.00    +0.000 C 
BRANCH   9  10
ATOM     10  C   UNL     1      10.271  -8.801   9.985  0.00  0.00    +0.000 C 
ATOM     11  C   UNL     1      10.340  -7.414   9.356  0.00  0.00    +0.000 C 
BRANCH  10  12
ATOM     12  O   UNL     1       8.911  -9.048  10.367  0.00  0.00    +0.000 OA
ATOM     13  H   UNL     1       8.721  -8.523  11.162  0.00  0.00    +0.000 HD
ENDBRANCH  10  12
ENDBRANCH   9  10
ENDBRANCH   1   9
BRANCH   1  14
ATOM     14  C   UNL     1      10.877 -12.276   9.717  0.00  0.00    +0.000 C 
BRANCH  14  15
ATOM     15  C   UNL     1      12.342 -11.848   9.974  0.00  0.00    +0.000 C 
ATOM     16  C   UNL     1      12.891 -12.356  11.302  0.00  0.00    +0.000 C 
BRANCH  15  17
ATOM     17  O   UNL     1      13.212 -12.298   8.935  0.00  0.00    +0.000 OA
ATOM     18  H   UNL     1      14.040 -12.551   9.391  0.00  0.00    +0.000 HD
ENDBRANCH  15  17
ENDBRANCH  14  15
ENDBRANCH   1  14
TORSDOF 7
ENDMDL
