MODEL 1
REMARK VINA RESULT:    -4.751      0.000      0.000
REMARK INTER + INTRA:          -5.218
REMARK INTER:                  -5.167
REMARK INTRA:                  -0.051
REMARK UNBOUND:                -0.051
REMARK  Name = 
REMARK  3 active torsions:
REMARK  status: ('A' for Active; 'I' for Inactive)
REMARK    1  A    between atoms: C_1  and  O_2
REMARK    2  A    between atoms: O_2  and  C_3
REMARK    3  A    between atoms: C_8  and  O_9
REMARK                            x       y       z     vdW  Elec       q    Type
REMARK                         _______ _______ _______ _____ _____    ______ ____
ROOT
ATOM      1  C   UNL     1      12.889   4.429   3.423  0.00  0.00    +0.000 A 
ATOM      2  C   UNL     1      12.925   5.346   4.472  0.00  0.00    +0.000 A 
ATOM      3  C   UNL     1      14.128   5.984   4.803  0.00  0.00    +0.000 A 
ATOM      4  C   UNL     1      15.295   5.706   4.090  0.00  0.00    +0.000 A 
ATOM      5  C   UNL     1      15.267   4.791   3.040  0.00  0.00    +0.000 A 
ATOM      6  C   UNL     1      14.070   4.163   2.719  0.00  0.00    +0.000 A 
ENDROOT
BRANCH   1   8
ATOM      7  C   UNL     1      11.108   2.952   3.967  0.00  0.00    +0.000 C 
ATOM      8  O   UNL     1      11.788   3.733   2.992  0.00  0.00    +0.000 OA
ENDBRANCH   1   8
BRANCH   6   9
ATOM      9  O   UNL     1      14.068   3.267   1.684  0.00  0.00    +0.000 OA
ATOM     10  H   UNL     1      13.277   2.715   1.835  0.00  0.00    +0.000 HD
ENDBRANCH   6   9
TORSDOF 2
ENDMDL
MODEL 2
REMARK VINA RESULT:    -4.684      1.257      3.088
REMARK INTER + INTRA:          -5.145
REMARK INTER:                  -5.107
REMARK INTRA:                  -0.038
REMARK UNBOUND:                -0.051
REMARK  Name = 
REMARK  3 active torsions:
REMARK  status: ('A' for Active; 'I' for Inactive)
REMARK    1  A    between atoms: C_1  and  O_2
REMARK    2  A    between atoms: O_2  and  C_3
REMARK    3  A    between atoms: C_8  and  O_9
REMARK                            x       y       z     vdW  Elec       q    Type
REMARK                         _______ _______ _______ _____ _____    ______ ____
ROOT
ATOM      1  C   UNL     1      14.094   4.861   3.392  0.00  0.00    +0.000 A 
ATOM      2  C   UNL     1      13.415   5.350   4.507  0.00  0.00    +0.000 A 
ATOM      3  C   UNL     1      12.146   4.850   4.829  0.00  0.00    +0.000 A 
ATOM      4  C   UNL     1      11.553   3.864   4.038  0.00  0.00    +0.000 A 
ATOM      5  C   UNL     1      12.225   3.370   2.923  0.00  0.00    +0.000 A 
ATOM      6  C   UNL     1      13.483   3.871   2.612  0.00  0.00    +0.000 A 
ENDROOT
BRANCH   1   8
ATOM      7  C   UNL     1      16.036   6.168   3.796  0.00  0.00    +0.000 C 
ATOM      8  O   UNL     1      15.335   5.256   2.960  0.00  0.00    +0.000 OA
ENDBRANCH   1   8
BRANCH   6   9
ATOM      9  O   UNL     1      14.124   3.371   1.510  0.00  0.00    +0.000 OA
ATOM     10  H   UNL     1      13.425   2.920   0.999  0.00  0.00    +0.000 HD
ENDBRANCH   6   9
TORSDOF 2
ENDMDL
MODEL 3
REMARK VINA RESULT:    -4.563      1.770      2.060
REMARK INTER + INTRA:          -5.014
REMARK INTER:                  -4.964
REMARK INTRA:                  -0.050
REMARK UNBOUND:                -0.051
REMARK  Name = 
REMARK  3 active torsions:
REMARK  status: ('A' for Active; 'I' for Inactive)
REMARK    1  A    between atoms: C_1  and  O_2
REMARK    2  A    between atoms: O_2  and  C_3
REMARK    3  A    between atoms: C_8  and  O_9
REMARK                            x       y       z     vdW  Elec       q    Type
REMARK                         _______ _______ _______ _____ _____    ______ ____
ROOT
ATOM      1  C   UNL     1      12.475   5.694   2.599  0.00  0.00    +0.000 A 
ATOM      2  C   UNL     1      12.649   6.613   3.633  0.00  0.00    +0.000 A 
ATOM      3  C   UNL     1      13.767   6.519   4.472  0.00  0.00    +0.000 A 
ATOM      4  C   UNL     1      14.711   5.509   4.281  0.00  0.00    +0.000 A 
ATOM      5  C   UNL     1      14.545   4.587   3.250  0.00  0.00    +0.000 A 
ATOM      6  C   UNL     1      13.433   4.688   2.424  0.00  0.00    +0.000 A 
ENDROOT
BRANCH   1   8
ATOM      7  C   UNL     1      11.407   6.697   0.728  0.00  0.00    +0.000 C 
ATOM      8  O   UNL     1      11.433   5.665   1.707  0.00  0.00    +0.000 OA
ENDBRANCH   1   8
BRANCH   6   9
ATOM      9  O   UNL     1      13.290   3.770   1.417  0.00  0.00    +0.000 OA
ATOM     10  H   UNL     1      13.900   3.045   1.654  0.00  0.00    +0.000 HD
ENDBRANCH   6   9
TORSDOF 2
ENDMDL
MODEL 4
REMARK VINA RESULT:    -4.464      2.094      3.614
REMARK INTER + INTRA:          -4.906
REMARK INTER:                  -4.858
REMARK INTRA:                  -0.048
REMARK UNBOUND:                -0.051
REMARK  Name = 
REMARK  3 active torsions:
REMARK  status: ('A' for Active; 'I' for Inactive)
REMARK    1  A    between atoms: C_1  and  O_2
REMARK    2  A    between atoms: O_2  and  C_3
REMARK    3  A    between atoms: C_8  and  O_9
REMARK                            x       y       z     vdW  Elec       q    Type
REMARK                         _______ _______ _______ _____ _____    ______ ____
ROOT
ATOM      1  C   UNL     1      12.262   4.932   3.178  0.00  0.00    +0.000 A 
ATOM      2  C   UNL     1      11.548   3.762   2.925  0.00  0.00    +0.000 A 
ATOM      3  C   UNL     1      11.096   2.974   3.990  0.00  0.00    +0.000 A 
ATOM      4  C   UNL     1      11.356   3.349   5.309  0.00  0.00    +0.000 A 
ATOM      5  C   UNL     1      12.069   4.517   5.571  0.00  0.00    +0.000 A 
ATOM      6  C   UNL     1      12.514   5.293   4.508  0.00  0.00    +0.000 A 
ENDROOT
BRANCH   1   8
ATOM      7  C   UNL     1      11.865   6.216   1.219  0.00  0.00    +0.000 C 
ATOM      8  O   UNL     1      12.764   5.796   2.238  0.00  0.00    +0.000 OA
ENDBRANCH   1   8
BRANCH   6   9
ATOM      9  O   UNL     1      13.213   6.436   4.790  0.00  0.00    +0.000 OA
ATOM     10  H   UNL     1      13.649   6.674   3.949  0.00  0.00    +0.000 HD
ENDBRANCH   6   9
TORSDOF 2
ENDMDL
MODEL 5
REMARK VINA RESULT:    -4.414      1.132      2.228
REMARK INTER + INTRA:          -4.852
REMARK INTER:                  -4.836
REMARK INTRA:                  -0.016
REMARK UNBOUND:                -0.051
REMARK  Name = 
REMARK  3 active torsions:
REMARK  status: ('A' for Active; 'I' for Inactive)
REMARK    1  A    between atoms: C_1  and  O_2
REMARK    2  A    between atoms: O_2  and  C_3
REMARK    3  A    between atoms: C_8  and  O_9
REMARK                            x       y       z     vdW  Elec       q    Type
REMARK                         _______ _______ _______ _____ _____    ______ ____
ROOT
ATOM      1  C   UNL     1      13.215   4.601   3.244  0.00  0.00    +0.000 A 
ATOM      2  C   UNL     1      14.397   3.962   2.872  0.00  0.00    +0.000 A 
ATOM      3  C   UNL     1      15.633   4.507   3.241  0.00  0.00    +0.000 A 
ATOM      4  C   UNL     1      15.693   5.690   3.981  0.00  0.00    +0.000 A 
ATOM      5  C   UNL     1      14.516   6.334   4.357  0.00  0.00    +0.000 A 
ATOM      6  C   UNL     1      13.295   5.786   3.986  0.00  0.00    +0.000 A 
ENDROOT
BRANCH   1   8
ATOM      7  C   UNL     1      11.402   3.164   3.786  0.00  0.00    +0.000 C 
ATOM      8  O   UNL     1      11.941   4.183   2.953  0.00  0.00    +0.000 OA
ENDBRANCH   1   8
BRANCH   6   9
ATOM      9  O   UNL     1      12.152   6.437   4.367  0.00  0.00    +0.000 OA
ATOM     10  H   UNL     1      11.667   6.597   3.534  0.00  0.00    +0.000 HD
ENDBRANCH   6   9
TORSDOF 2
ENDMDL
MODEL 6
REMARK VINA RESULT:    -4.262      2.509      3.337
REMARK INTER + INTRA:          -4.686
REMARK INTER:                  -4.649
REMARK INTRA:                  -0.038
REMARK UNBOUND:                -0.051
REMARK  Name = 
REMARK  3 active torsions:
REMARK  status: ('A' for Active; 'I' for Inactive)
REMARK    1  A    between atoms: C_1  and  O_2
REMARK    2  A    between atoms: O_2  and  C_3
REMARK    3  A    between atoms: C_8  and  O_9
REMARK                            x       y       z     vdW  Elec       q    Type
REMARK                         _______ _______ _______ _____ _____    ______ ____
ROOT
ATOM      1  C   UNL     1      12.288   6.049   2.527  0.00  0.00    +0.000 A 
ATOM      2  C   UNL     1      12.403   4.891   1.760  0.00  0.00    +0.000 A 
ATOM      3  C   UNL     1      13.316   3.895   2.129  0.00  0.00    +0.000 A 
ATOM      4  C   UNL     1      14.117   4.054   3.262  0.00  0.00    +0.000 A 
ATOM      5  C   UNL     1      14.008   5.209   4.033  0.00  0.00    +0.000 A 
ATOM      6  C   UNL     1      13.099   6.191   3.659  0.00  0.00    +0.000 A 
ENDROOT
BRANCH   1   8
ATOM      7  C   UNL     1      10.761   7.094   1.035  0.00  0.00    +0.000 C 
ATOM      8  O   UNL     1      11.441   7.101   2.285  0.00  0.00    +0.000 OA
ENDBRANCH   1   8
BRANCH   6   9
ATOM      9  O   UNL     1      13.010   7.318   4.433  0.00  0.00    +0.000 OA
ATOM     10  H   UNL     1      12.927   8.051   3.794  0.00  0.00    +0.000 HD
ENDBRANCH   6   9
TORSDOF 2
ENDMDL
MODEL 7
REMARK VINA RESULT:    -3.863     17.029     17.955
REMARK INTER + INTRA:          -4.253
REMARK INTER:                  -4.249
REMARK INTRA:                  -0.004
REMARK UNBOUND:                -0.051
REMARK  Name = 
REMARK  3 active torsions:
REMARK  status: ('A' for Active; 'I' for Inactive)
REMARK    1  A    between atoms: C_1  and  O_2
REMARK    2  A    between atoms: O_2  and  C_3
REMARK    3  A    between atoms: C_8  and  O_9
REMARK                            x       y       z     vdW  Elec       q    Type
REMARK                         _______ _______ _______ _____ _____    ______ ____
ROOT
ATOM      1  C   UNL     1       8.120 -11.114   7.888  0.00  0.00    +0.000 A 
ATOM      2  C   UNL     1       8.158 -11.750   6.648  0.00  0.00    +0.000 A 
ATOM      3  C   UNL     1       7.004 -12.357   6.138  0.00  0.00    +0.000 A 
ATOM      4  C   UNL     1       5.811 -12.331   6.863  0.00  0.00    +0.000 A 
ATOM      5  C   UNL     1       5.765 -11.697   8.102  0.00  0.00    +0.000 A 
ATOM      6  C   UNL     1       6.915 -11.098   8.601  0.00  0.00    +0.000 A 
ENDROOT
BRANCH   1   8
ATOM      7  C   UNL     1      10.065 -11.309   9.240  0.00  0.00    +0.000 C 
ATOM      8  O   UNL     1       9.169 -10.482   8.508  0.00  0.00    +0.000 OA
ENDBRANCH   1   8
BRANCH   6   9
ATOM      9  O   UNL     1       6.845 -10.481   9.821  0.00  0.00    +0.000 OA
ATOM     10  H   UNL     1       6.743 -11.210  10.463  0.00  0.00    +0.000 HD
ENDBRANCH   6   9
TORSDOF 2
ENDMDL
MODEL 8
REMARK VINA RESULT:    -3.706     15.837     17.005
REMARK INTER + INTRA:          -4.082
REMARK INTER:                  -4.044
REMARK INTRA:                  -0.038
REMARK UNBOUND:                -0.051
REMARK  Name = 
REMARK  3 active torsions:
REMARK  status: ('A' for Active; 'I' for Inactive)
REMARK    1  A    between atoms: C_1  and  O_2
REMARK    2  A    between atoms: O_2  and  C_3
REMARK    3  A    between atoms: C_8  and  O_9
REMARK                            x       y       z     vdW  Elec       q    Type
REMARK                         _______ _______ _______ _____ _____    ______ ____
ROOT
ATOM      1  C   UNL     1       8.204 -11.069   6.842  0.00  0.00    +0.000 A 
ATOM      2  C   UNL     1       7.510 -12.077   7.510  0.00  0.00    +0.000 A 
ATOM      3  C   UNL     1       7.802 -12.357   8.851  0.00  0.00    +0.000 A 
ATOM      4  C   UNL     1       8.787 -11.634   9.527  0.00  0.00    +0.000 A 
ATOM      5  C   UNL     1       9.485 -10.626   8.866  0.00  0.00    +0.000 A 
ATOM      6  C   UNL     1       9.188 -10.355   7.536  0.00  0.00    +0.000 A 
ENDROOT
BRANCH   1   8
ATOM      7  C   UNL     1       7.186 -11.521   4.743  0.00  0.00    +0.000 C 
ATOM      8  O   UNL     1       8.024 -10.689   5.536  0.00  0.00    +0.000 OA
ENDBRANCH   1   8
BRANCH   6   9
ATOM      9  O   UNL     1       9.887  -9.359   6.908  0.00  0.00    +0.000 OA
ATOM     10  H   UNL     1       9.255  -8.619   6.837  0.00  0.00    +0.000 HD
ENDBRANCH   6   9
TORSDOF 2
ENDMDL
MODEL 9
REMARK VINA RESULT:    -3.679     15.193     17.204
REMARK INTER + INTRA:          -4.052
REMARK INTER:                  -4.000
REMARK INTRA:                  -0.052
REMARK UNBOUND:                -0.051
REMARK  Name = 
REMARK  3 active torsions:
REMARK  status: ('A' for Active; 'I' for Inactive)
REMARK    1  A    between atoms: C_1  and  O_2
REMARK    2  A    between atoms: O_2  and  C_3
REMARK    3  A    between atoms: C_8  and  O_9
REMARK                            x       y       z     vdW  Elec       q    Type
REMARK                         _______ _______ _______ _____ _____    ______ ____
ROOT
ATOM      1  C   UNL     1       9.508 -10.603   8.470  0.00  0.00    +0.000 A 
ATOM      2  C   UNL     1       9.150 -10.240   7.173  0.00  0.00    +0.000 A 
ATOM      3  C   UNL     1       8.130 -10.933   6.509  0.00  0.00    +0.000 A 
ATOM      4  C   UNL     1       7.467 -11.988   7.137  0.00  0.00    +0.000 A 
ATOM      5  C   UNL     1       7.819 -12.357   8.433  0.00  0.00    +0.000 A 
ATOM      6  C   UNL     1       8.832 -11.665   9.084  0.00  0.00    +0.000 A 
ENDROOT
BRANCH   1   8
ATOM      7  C   UNL     1      10.276  -8.656   9.596  0.00  0.00    +0.000 C 
ATOM      8  O   UNL     1      10.484 -10.017   9.237  0.00  0.00    +0.000 OA
ENDBRANCH   1   8
BRANCH   6   9
ATOM      9  O   UNL     1       9.160 -12.045  10.358  0.00  0.00    +0.000 OA
ATOM     10  H   UNL     1       9.333 -13.004  10.293  0.00  0.00    +0.000 HD
ENDBRANCH   6   9
TORSDOF 2
ENDMDL
