MODEL 1
REMARK VINA RESULT:    -4.755      0.000      0.000
REMARK INTER + INTRA:          -5.222
REMARK INTER:                  -5.172
REMARK INTRA:                  -0.051
REMARK UNBOUND:                -0.051
REMARK  Name = 
REMARK  3 active torsions:
REMARK  status: ('A' for Active; 'I' for Inactive)
REMARK    1  A    between atoms: C_1  and  O_2
REMARK    2  A    between atoms: O_2  and  C_3
REMARK    3  A    between atoms: C_8  and  O_9
REMARK                            x       y       z     vdW  Elec       q    Type
REMARK                         _______ _______ _______ _____ _____    ______ ____
ROOT
ATOM      1  C   UNL     1      12.891   4.448   3.411  0.00  0.00    +0.000 A 
ATOM      2  C   UNL     1      12.946   5.368   4.458  0.00  0.00    +0.000 A 
ATOM      3  C   UNL     1      14.161   5.982   4.786  0.00  0.00    +0.000 A 
ATOM      4  C   UNL     1      15.323   5.680   4.073  0.00  0.00    +0.000 A 
ATOM      5  C   UNL     1      15.276   4.762   3.026  0.00  0.00    +0.000 A 
ATOM      6  C   UNL     1      14.066   4.158   2.707  0.00  0.00    +0.000 A 
ENDROOT
BRANCH   1   8
ATOM      7  C   UNL     1      11.090   2.998   3.957  0.00  0.00    +0.000 C 
ATOM      8  O   UNL     1      11.777   3.773   2.982  0.00  0.00    +0.000 OA
ENDBRANCH   1   8
BRANCH   6   9
ATOM      9  O   UNL     1      14.045   3.259   1.674  0.00  0.00    +0.000 OA
ATOM     10  H   UNL     1      13.780   3.783   0.894  0.00  0.00    +0.000 HD
ENDBRANCH   6   9
TORSDOF 2
ENDMDL
MODEL 2
REMARK VINA RESULT:    -4.695      1.282      3.096
REMARK INTER + INTRA:          -5.158
REMARK INTER:                  -5.120
REMARK INTRA:                  -0.038
REMARK UNBOUND:                -0.051
REMARK  Name = 
REMARK  3 active torsions:
REMARK  status: ('A' for Active; 'I' for Inactive)
REMARK    1  A    between atoms: C_1  and  O_2
REMARK    2  A    between atoms: O_2  and  C_3
REMARK    3  A    between atoms: C_8  and  O_9
REMARK                            x       y       z     vdW  Elec       q    Type
REMARK                         _______ _______ _______ _____ _____    ______ ____
ROOT
ATOM      1  C   UNL     1      14.133   4.875   3.389  0.00  0.00    +0.000 A 
ATOM      2  C   UNL     1      13.430   5.354   4.495  0.00  0.00    +0.000 A 
ATOM      3  C   UNL     1      12.156   4.851   4.785  0.00  0.00    +0.000 A 
ATOM      4  C   UNL     1      11.579   3.873   3.973  0.00  0.00    +0.000 A 
ATOM      5  C   UNL     1      12.274   3.389   2.867  0.00  0.00    +0.000 A 
ATOM      6  C   UNL     1      13.538   3.894   2.587  0.00  0.00    +0.000 A 
ENDROOT
BRANCH   1   8
ATOM      7  C   UNL     1      15.960   6.362   3.699  0.00  0.00    +0.000 C 
ATOM      8  O   UNL     1      15.382   5.275   2.987  0.00  0.00    +0.000 OA
ENDBRANCH   1   8
BRANCH   6   9
ATOM      9  O   UNL     1      14.202   3.403   1.494  0.00  0.00    +0.000 OA
ATOM     10  H   UNL     1      14.814   4.118   1.234  0.00  0.00    +0.000 HD
ENDBRANCH   6   9
TORSDOF 2
ENDMDL
MODEL 3
REMARK VINA RESULT:    -4.548      1.386      1.689
REMARK INTER + INTRA:          -4.998
REMARK INTER:                  -4.946
REMARK INTRA:                  -0.052
REMARK UNBOUND:                -0.051
REMARK  Name = 
REMARK  3 active torsions:
REMARK  status: ('A' for Active; 'I' for Inactive)
REMARK    1  A    between atoms: C_1  and  O_2
REMARK    2  A    between atoms: O_2  and  C_3
REMARK    3  A    between atoms: C_8  and  O_9
REMARK                            x       y       z     vdW  Elec       q    Type
REMARK                         _______ _______ _______ _____ _____    ______ ____
ROOT
ATOM      1  C   UNL     1      12.836   5.402   2.828  0.00  0.00    +0.000 A 
ATOM      2  C   UNL     1      13.009   6.364   3.821  0.00  0.00    +0.000 A 
ATOM      3  C   UNL     1      14.202   6.407   4.553  0.00  0.00    +0.000 A 
ATOM      4  C   UNL     1      15.224   5.491   4.296  0.00  0.00    +0.000 A 
ATOM      5  C   UNL     1      15.058   4.527   3.305  0.00  0.00    +0.000 A 
ATOM      6  C   UNL     1      13.872   4.491   2.584  0.00  0.00    +0.000 A 
ENDROOT
BRANCH   1   8
ATOM      7  C   UNL     1      11.485   6.257   1.070  0.00  0.00    +0.000 C 
ATOM      8  O   UNL     1      11.726   5.242   2.037  0.00  0.00    +0.000 OA
ENDBRANCH   1   8
BRANCH   6   9
ATOM      9  O   UNL     1      13.732   3.534   1.614  0.00  0.00    +0.000 OA
ATOM     10  H   UNL     1      12.829   3.185   1.737  0.00  0.00    +0.000 HD
ENDBRANCH   6   9
TORSDOF 2
ENDMDL
MODEL 4
REMARK VINA RESULT:    -4.501      1.620      3.307
REMARK INTER + INTRA:          -4.947
REMARK INTER:                  -4.900
REMARK INTRA:                  -0.047
REMARK UNBOUND:                -0.051
REMARK  Name = 
REMARK  3 active torsions:
REMARK  status: ('A' for Active; 'I' for Inactive)
REMARK    1  A    between atoms: C_1  and  O_2
REMARK    2  A    between atoms: O_2  and  C_3
REMARK    3  A    between atoms: C_8  and  O_9
REMARK                            x       y       z     vdW  Elec       q    Type
REMARK                         _______ _______ _______ _____ _____    ______ ____
ROOT
ATOM      1  C   UNL     1      12.731   5.361   4.325  0.00  0.00    +0.000 A 
ATOM      2  C   UNL     1      12.015   4.775   5.369  0.00  0.00    +0.000 A 
ATOM      3  C   UNL     1      11.319   3.578   5.154  0.00  0.00    +0.000 A 
ATOM      4  C   UNL     1      11.335   2.965   3.900  0.00  0.00    +0.000 A 
ATOM      5  C   UNL     1      12.048   3.544   2.853  0.00  0.00    +0.000 A 
ATOM      6  C   UNL     1      12.735   4.731   3.074  0.00  0.00    +0.000 A 
ENDROOT
BRANCH   1   8
ATOM      7  C   UNL     1      14.684   6.469   5.101  0.00  0.00    +0.000 C 
ATOM      8  O   UNL     1      13.453   6.525   4.391  0.00  0.00    +0.000 OA
ENDBRANCH   1   8
BRANCH   6   9
ATOM      9  O   UNL     1      13.428   5.282   2.030  0.00  0.00    +0.000 OA
ATOM     10  H   UNL     1      12.786   5.868   1.587  0.00  0.00    +0.000 HD
ENDBRANCH   6   9
TORSDOF 2
ENDMDL
MODEL 5
REMARK VINA RESULT:    -4.455      1.056      2.197
REMARK INTER + INTRA:          -4.897
REMARK INTER:                  -4.877
REMARK INTRA:                  -0.020
REMARK UNBOUND:                -0.051
REMARK  Name = 
REMARK  3 active torsions:
REMARK  status: ('A' for Active; 'I' for Inactive)
REMARK    1  A    between atoms: C_1  and  O_2
REMARK    2  A    between atoms: O_2  and  C_3
REMARK    3  A    between atoms: C_8  and  O_9
REMARK                            x       y       z     vdW  Elec       q    Type
REMARK                         _______ _______ _______ _____ _____    ______ ____
ROOT
ATOM      1  C   UNL     1      13.063   4.481   3.227  0.00  0.00    +0.000 A 
ATOM      2  C   UNL     1      14.243   3.834   2.864  0.00  0.00    +0.000 A 
ATOM      3  C   UNL     1      15.481   4.415   3.168  0.00  0.00    +0.000 A 
ATOM      4  C   UNL     1      15.543   5.642   3.831  0.00  0.00    +0.000 A 
ATOM      5  C   UNL     1      14.368   6.295   4.197  0.00  0.00    +0.000 A 
ATOM      6  C   UNL     1      13.145   5.711   3.892  0.00  0.00    +0.000 A 
ENDROOT
BRANCH   1   8
ATOM      7  C   UNL     1      11.287   3.050   3.894  0.00  0.00    +0.000 C 
ATOM      8  O   UNL     1      11.787   4.032   2.995  0.00  0.00    +0.000 OA
ENDBRANCH   1   8
BRANCH   6   9
ATOM      9  O   UNL     1      12.004   6.371   4.261  0.00  0.00    +0.000 OA
ATOM     10  H   UNL     1      11.455   5.693   4.699  0.00  0.00    +0.000 HD
ENDBRANCH   6   9
TORSDOF 2
ENDMDL
MODEL 6
REMARK VINA RESULT:    -4.097      2.114      3.719
REMARK INTER + INTRA:          -4.508
REMARK INTER:                  -4.469
REMARK INTRA:                  -0.038
REMARK UNBOUND:                -0.051
REMARK  Name = 
REMARK  3 active torsions:
REMARK  status: ('A' for Active; 'I' for Inactive)
REMARK    1  A    between atoms: C_1  and  O_2
REMARK    2  A    between atoms: O_2  and  C_3
REMARK    3  A    between atoms: C_8  and  O_9
REMARK                            x       y       z     vdW  Elec       q    Type
REMARK                         _______ _______ _______ _____ _____    ______ ____
ROOT
ATOM      1  C   UNL     1      13.450   5.259   4.440  0.00  0.00    +0.000 A 
ATOM      2  C   UNL     1      14.113   5.081   3.227  0.00  0.00    +0.000 A 
ATOM      3  C   UNL     1      13.627   4.157   2.293  0.00  0.00    +0.000 A 
ATOM      4  C   UNL     1      12.481   3.409   2.568  0.00  0.00    +0.000 A 
ATOM      5  C   UNL     1      11.813   3.581   3.778  0.00  0.00    +0.000 A 
ATOM      6  C   UNL     1      12.302   4.500   4.698  0.00  0.00    +0.000 A 
ENDROOT
BRANCH   1   8
ATOM      7  C   UNL     1      14.758   7.129   5.103  0.00  0.00    +0.000 C 
ATOM      8  O   UNL     1      13.811   6.123   5.443  0.00  0.00    +0.000 OA
ENDBRANCH   1   8
BRANCH   6   9
ATOM      9  O   UNL     1      11.628   4.651   5.881  0.00  0.00    +0.000 OA
ATOM     10  H   UNL     1      12.205   5.222   6.424  0.00  0.00    +0.000 HD
ENDBRANCH   6   9
TORSDOF 2
ENDMDL
MODEL 7
REMARK VINA RESULT:    -3.866      1.652      2.718
REMARK INTER + INTRA:          -4.256
REMARK INTER:                  -4.205
REMARK INTRA:                  -0.052
REMARK UNBOUND:                -0.051
REMARK  Name = 
REMARK  3 active torsions:
REMARK  status: ('A' for Active; 'I' for Inactive)
REMARK    1  A    between atoms: C_1  and  O_2
REMARK    2  A    between atoms: O_2  and  C_3
REMARK    3  A    between atoms: C_8  and  O_9
REMARK                            x       y       z     vdW  Elec       q    Type
REMARK                         _______ _______ _______ _____ _____    ______ ____
ROOT
ATOM      1  C   UNL     1      13.456   4.485   2.539  0.00  0.00    +0.000 A 
ATOM      2  C   UNL     1      13.885   4.719   3.845  0.00  0.00    +0.000 A 
ATOM      3  C   UNL     1      13.453   5.862   4.529  0.00  0.00    +0.000 A 
ATOM      4  C   UNL     1      12.594   6.774   3.913  0.00  0.00    +0.000 A 
ATOM      5  C   UNL     1      12.160   6.547   2.608  0.00  0.00    +0.000 A 
ATOM      6  C   UNL     1      12.594   5.411   1.937  0.00  0.00    +0.000 A 
ENDROOT
BRANCH   1   8
ATOM      7  C   UNL     1      15.184   3.238   1.488  0.00  0.00    +0.000 C 
ATOM      8  O   UNL     1      13.797   3.415   1.752  0.00  0.00    +0.000 OA
ENDBRANCH   1   8
BRANCH   6   9
ATOM      9  O   UNL     1      12.155   5.210   0.656  0.00  0.00    +0.000 OA
ATOM     10  H   UNL     1      11.498   5.917   0.505  0.00  0.00    +0.000 HD
ENDBRANCH   6   9
TORSDOF 2
ENDMDL
MODEL 8
REMARK VINA RESULT:    -3.801     15.734     17.664
REMARK INTER + INTRA:          -4.185
REMARK INTER:                  -4.140
REMARK INTRA:                  -0.045
REMARK UNBOUND:                -0.051
REMARK  Name = 
REMARK  3 active torsions:
REMARK  status: ('A' for Active; 'I' for Inactive)
REMARK    1  A    between atoms: C_1  and  O_2
REMARK    2  A    between atoms: O_2  and  C_3
REMARK    3  A    between atoms: C_8  and  O_9
REMARK                            x       y       z     vdW  Elec       q    Type
REMARK                         _______ _______ _______ _____ _____    ______ ____
ROOT
ATOM      1  C   UNL     1       8.418 -10.905   8.730  0.00  0.00    +0.000 A 
ATOM      2  C   UNL     1       8.903 -11.661   7.664  0.00  0.00    +0.000 A 
ATOM      3  C   UNL     1       8.013 -12.357   6.837  0.00  0.00    +0.000 A 
ATOM      4  C   UNL     1       6.638 -12.301   7.073  0.00  0.00    +0.000 A 
ATOM      5  C   UNL     1       6.145 -11.548   8.136  0.00  0.00    +0.000 A 
ATOM      6  C   UNL     1       7.036 -10.861   8.951  0.00  0.00    +0.000 A 
ENDROOT
BRANCH   1   8
ATOM      7  C   UNL     1      10.258  -9.440   9.071  0.00  0.00    +0.000 C 
ATOM      8  O   UNL     1       9.171 -10.177   9.617  0.00  0.00    +0.000 OA
ENDBRANCH   1   8
BRANCH   6   9
ATOM      9  O   UNL     1       6.528 -10.128   9.990  0.00  0.00    +0.000 OA
ATOM     10  H   UNL     1       6.233  -9.291   9.582  0.00  0.00    +0.000 HD
ENDBRANCH   6   9
TORSDOF 2
ENDMDL
MODEL 9
REMARK VINA RESULT:    -3.735     15.847     17.003
REMARK INTER + INTRA:          -4.113
REMARK INTER:                  -4.076
REMARK INTRA:                  -0.038
REMARK UNBOUND:                -0.051
REMARK  Name = 
REMARK  3 active torsions:
REMARK  status: ('A' for Active; 'I' for Inactive)
REMARK    1  A    between atoms: C_1  and  O_2
REMARK    2  A    between atoms: O_2  and  C_3
REMARK    3  A    between atoms: C_8  and  O_9
REMARK                            x       y       z     vdW  Elec       q    Type
REMARK                         _______ _______ _______ _____ _____    ______ ____
ROOT
ATOM      1  C   UNL     1       8.191 -11.040   6.839  0.00  0.00    +0.000 A 
ATOM      2  C   UNL     1       7.485 -12.049   7.493  0.00  0.00    +0.000 A 
ATOM      3  C   UNL     1       7.778 -12.357   8.827  0.00  0.00    +0.000 A 
ATOM      4  C   UNL     1       8.776 -11.661   9.511  0.00  0.00    +0.000 A 
ATOM      5  C   UNL     1       9.486 -10.652   8.865  0.00  0.00    +0.000 A 
ATOM      6  C   UNL     1       9.189 -10.353   7.542  0.00  0.00    +0.000 A 
ENDROOT
BRANCH   1   8
ATOM      7  C   UNL     1       7.132 -11.420   4.746  0.00  0.00    +0.000 C 
ATOM      8  O   UNL     1       8.012 -10.634   5.541  0.00  0.00    +0.000 OA
ENDBRANCH   1   8
BRANCH   6   9
ATOM      9  O   UNL     1       9.900  -9.357   6.928  0.00  0.00    +0.000 OA
ATOM     10  H   UNL     1       9.817  -8.588   7.524  0.00  0.00    +0.000 HD
ENDBRANCH   6   9
TORSDOF 2
ENDMDL
