MODEL 1
REMARK VINA RESULT:    -3.674      0.000      0.000
REMARK INTER + INTRA:          -4.034
REMARK INTER:                  -3.996
REMARK INTRA:                  -0.038
REMARK UNBOUND:                -0.038
REMARK  Name = 
REMARK  3 active torsions:
REMARK  status: ('A' for Active; 'I' for Inactive)
REMARK    1  A    between atoms: C_1  and  O_2
REMARK    2  A    between atoms: O_2  and  C_3
REMARK    3  A    between atoms: C_8  and  O_9
REMARK                            x       y       z     vdW  Elec       q    Type
REMARK                         _______ _______ _______ _____ _____    ______ ____
ROOT
ATOM      1  C   UNL     1      -5.058  11.362  -6.211  0.00  0.00    +0.000 A 
ATOM      2  C   UNL     1      -5.236  11.729  -4.877  0.00  0.00    +0.000 A 
ATOM      3  C   UNL     1      -5.122  13.073  -4.501  0.00  0.00    +0.000 A 
ATOM      4  C   UNL     1      -4.831  14.053  -5.453  0.00  0.00    +0.000 A 
ATOM      5  C   UNL     1      -4.653  13.693  -6.787  0.00  0.00    +0.000 A 
ATOM      6  C   UNL     1      -4.767  12.358  -7.151  0.00  0.00    +0.000 A 
ENDROOT
BRANCH   1   8
ATOM      7  C   UNL     1      -5.231   9.033  -5.772  0.00  0.00    +0.000 C 
ATOM      8  O   UNL     1      -5.138  10.090  -6.719  0.00  0.00    +0.000 OA
ENDBRANCH   1   8
BRANCH   6   9
ATOM      9  O   UNL     1      -4.587  12.029  -8.468  0.00  0.00    +0.000 OA
ATOM     10  H   UNL     1      -5.464  11.724  -8.770  0.00  0.00    +0.000 HD
ENDBRANCH   6   9
TORSDOF 2
ENDMDL
MODEL 2
REMARK VINA RESULT:    -3.494     12.271     13.458
REMARK INTER + INTRA:          -3.838
REMARK INTER:                  -3.800
REMARK INTRA:                  -0.038
REMARK UNBOUND:                -0.038
REMARK  Name = 
REMARK  3 active torsions:
REMARK  status: ('A' for Active; 'I' for Inactive)
REMARK    1  A    between atoms: C_1  and  O_2
REMARK    2  A    between atoms: O_2  and  C_3
REMARK    3  A    between atoms: C_8  and  O_9
REMARK                            x       y       z     vdW  Elec       q    Type
REMARK                         _______ _______ _______ _____ _____    ______ ____
ROOT
ATOM      1  C   UNL     1      -2.940  16.657   6.029  0.00  0.00    +0.000 A 
ATOM      2  C   UNL     1      -1.745  17.250   6.434  0.00  0.00    +0.000 A 
ATOM      3  C   UNL     1      -0.533  16.570   6.259  0.00  0.00    +0.000 A 
ATOM      4  C   UNL     1      -0.510  15.299   5.681  0.00  0.00    +0.000 A 
ATOM      5  C   UNL     1      -1.701  14.701   5.274  0.00  0.00    +0.000 A 
ATOM      6  C   UNL     1      -2.898  15.382   5.451  0.00  0.00    +0.000 A 
ENDROOT
BRANCH   1   8
ATOM      7  C   UNL     1      -4.313  18.358   6.961  0.00  0.00    +0.000 C 
ATOM      8  O   UNL     1      -4.194  17.203   6.139  0.00  0.00    +0.000 OA
ENDBRANCH   1   8
BRANCH   6   9
ATOM      9  O   UNL     1      -4.055  14.774   5.043  0.00  0.00    +0.000 OA
ATOM     10  H   UNL     1      -4.119  13.969   5.592  0.00  0.00    +0.000 HD
ENDBRANCH   6   9
TORSDOF 2
ENDMDL
MODEL 3
REMARK VINA RESULT:    -3.449     10.387     11.549
REMARK INTER + INTRA:          -3.789
REMARK INTER:                  -3.745
REMARK INTRA:                  -0.044
REMARK UNBOUND:                -0.038
REMARK  Name = 
REMARK  3 active torsions:
REMARK  status: ('A' for Active; 'I' for Inactive)
REMARK    1  A    between atoms: C_1  and  O_2
REMARK    2  A    between atoms: O_2  and  C_3
REMARK    3  A    between atoms: C_8  and  O_9
REMARK                            x       y       z     vdW  Elec       q    Type
REMARK                         _______ _______ _______ _____ _____    ______ ____
ROOT
ATOM      1  C   UNL     1      -1.176  16.110   3.385  0.00  0.00    +0.000 A 
ATOM      2  C   UNL     1      -0.897  15.023   4.213  0.00  0.00    +0.000 A 
ATOM      3  C   UNL     1      -1.736  14.735   5.297  0.00  0.00    +0.000 A 
ATOM      4  C   UNL     1      -2.855  15.529   5.556  0.00  0.00    +0.000 A 
ATOM      5  C   UNL     1      -3.141  16.616   4.733  0.00  0.00    +0.000 A 
ATOM      6  C   UNL     1      -2.303  16.894   3.661  0.00  0.00    +0.000 A 
ENDROOT
BRANCH   1   8
ATOM      7  C   UNL     1       0.060  15.475   1.458  0.00  0.00    +0.000 C 
ATOM      8  O   UNL     1      -0.445  16.508   2.295  0.00  0.00    +0.000 OA
ENDBRANCH   1   8
BRANCH   6   9
ATOM      9  O   UNL     1      -2.605  17.968   2.866  0.00  0.00    +0.000 OA
ATOM     10  H   UNL     1      -3.562  17.887   2.692  0.00  0.00    +0.000 HD
ENDBRANCH   6   9
TORSDOF 2
ENDMDL
MODEL 4
REMARK VINA RESULT:    -3.338      1.406      3.274
REMARK INTER + INTRA:          -3.669
REMARK INTER:                  -3.627
REMARK INTRA:                  -0.042
REMARK UNBOUND:                -0.038
REMARK  Name = 
REMARK  3 active torsions:
REMARK  status: ('A' for Active; 'I' for Inactive)
REMARK    1  A    between atoms: C_1  and  O_2
REMARK    2  A    between atoms: O_2  and  C_3
REMARK    3  A    between atoms: C_8  and  O_9
REMARK                            x       y       z     vdW  Elec       q    Type
REMARK                         _______ _______ _______ _____ _____    ______ ____
ROOT
ATOM      1  C   UNL     1      -3.691  13.482  -6.743  0.00  0.00    +0.000 A 
ATOM      2  C   UNL     1      -3.687  13.847  -5.398  0.00  0.00    +0.000 A 
ATOM      3  C   UNL     1      -4.456  13.128  -4.475  0.00  0.00    +0.000 A 
ATOM      4  C   UNL     1      -5.231  12.044  -4.892  0.00  0.00    +0.000 A 
ATOM      5  C   UNL     1      -5.240  11.672  -6.234  0.00  0.00    +0.000 A 
ATOM      6  C   UNL     1      -4.474  12.392  -7.143  0.00  0.00    +0.000 A 
ENDROOT
BRANCH   1   8
ATOM      7  C   UNL     1      -2.816  15.501  -7.641  0.00  0.00    +0.000 C 
ATOM      8  O   UNL     1      -2.991  14.093  -7.752  0.00  0.00    +0.000 OA
ENDBRANCH   1   8
BRANCH   6   9
ATOM      9  O   UNL     1      -4.500  12.008  -8.457  0.00  0.00    +0.000 OA
ATOM     10  H   UNL     1      -5.320  11.487  -8.548  0.00  0.00    +0.000 HD
ENDBRANCH   6   9
TORSDOF 2
ENDMDL
MODEL 5
REMARK VINA RESULT:    -3.325      1.717      2.383
REMARK INTER + INTRA:          -3.654
REMARK INTER:                  -3.602
REMARK INTRA:                  -0.052
REMARK UNBOUND:                -0.038
REMARK  Name = 
REMARK  3 active torsions:
REMARK  status: ('A' for Active; 'I' for Inactive)
REMARK    1  A    between atoms: C_1  and  O_2
REMARK    2  A    between atoms: O_2  and  C_3
REMARK    3  A    between atoms: C_8  and  O_9
REMARK                            x       y       z     vdW  Elec       q    Type
REMARK                         _______ _______ _______ _____ _____    ______ ____
ROOT
ATOM      1  C   UNL     1      -4.300  11.814  -7.114  0.00  0.00    +0.000 A 
ATOM      2  C   UNL     1      -5.222  12.330  -8.023  0.00  0.00    +0.000 A 
ATOM      3  C   UNL     1      -5.229  13.701  -8.310  0.00  0.00    +0.000 A 
ATOM      4  C   UNL     1      -4.319  14.559  -7.690  0.00  0.00    +0.000 A 
ATOM      5  C   UNL     1      -3.394  14.051  -6.781  0.00  0.00    +0.000 A 
ATOM      6  C   UNL     1      -3.394  12.690  -6.502  0.00  0.00    +0.000 A 
ENDROOT
BRANCH   1   8
ATOM      7  C   UNL     1      -5.240   9.962  -5.959  0.00  0.00    +0.000 C 
ATOM      8  O   UNL     1      -4.179  10.500  -6.739  0.00  0.00    +0.000 OA
ENDBRANCH   1   8
BRANCH   6   9
ATOM      9  O   UNL     1      -2.476  12.214  -5.605  0.00  0.00    +0.000 OA
ATOM     10  H   UNL     1      -1.623  12.585  -5.901  0.00  0.00    +0.000 HD
ENDBRANCH   6   9
TORSDOF 2
ENDMDL
MODEL 6
REMARK VINA RESULT:    -3.287     11.633     12.521
REMARK INTER + INTRA:          -3.613
REMARK INTER:                  -3.561
REMARK INTRA:                  -0.053
REMARK UNBOUND:                -0.038
REMARK  Name = 
REMARK  3 active torsions:
REMARK  status: ('A' for Active; 'I' for Inactive)
REMARK    1  A    between atoms: C_1  and  O_2
REMARK    2  A    between atoms: O_2  and  C_3
REMARK    3  A    between atoms: C_8  and  O_9
REMARK                            x       y       z     vdW  Elec       q    Type
REMARK                         _______ _______ _______ _____ _____    ______ ____
ROOT
ATOM      1  C   UNL     1      -2.503  17.100   4.402  0.00  0.00    +0.000 A 
ATOM      2  C   UNL     1      -1.630  16.802   3.356  0.00  0.00    +0.000 A 
ATOM      3  C   UNL     1      -0.903  15.606   3.371  0.00  0.00    +0.000 A 
ATOM      4  C   UNL     1      -1.043  14.705   4.428  0.00  0.00    +0.000 A 
ATOM      5  C   UNL     1      -1.913  14.996   5.477  0.00  0.00    +0.000 A 
ATOM      6  C   UNL     1      -2.630  16.185   5.454  0.00  0.00    +0.000 A 
ENDROOT
BRANCH   1   8
ATOM      7  C   UNL     1      -4.299  18.400   3.546  0.00  0.00    +0.000 C 
ATOM      8  O   UNL     1      -3.274  18.229   4.518  0.00  0.00    +0.000 OA
ENDBRANCH   1   8
BRANCH   6   9
ATOM      9  O   UNL     1      -3.479  16.448   6.496  0.00  0.00    +0.000 OA
ATOM     10  H   UNL     1      -3.589  15.591   6.949  0.00  0.00    +0.000 HD
ENDBRANCH   6   9
TORSDOF 2
ENDMDL
MODEL 7
REMARK VINA RESULT:    -3.252      3.990      5.165
REMARK INTER + INTRA:          -3.574
REMARK INTER:                  -3.523
REMARK INTRA:                  -0.051
REMARK UNBOUND:                -0.038
REMARK  Name = 
REMARK  3 active torsions:
REMARK  status: ('A' for Active; 'I' for Inactive)
REMARK    1  A    between atoms: C_1  and  O_2
REMARK    2  A    between atoms: O_2  and  C_3
REMARK    3  A    between atoms: C_8  and  O_9
REMARK                            x       y       z     vdW  Elec       q    Type
REMARK                         _______ _______ _______ _____ _____    ______ ____
ROOT
ATOM      1  C   UNL     1      -2.836  14.525  -3.647  0.00  0.00    +0.000 A 
ATOM      2  C   UNL     1      -2.524  13.783  -4.785  0.00  0.00    +0.000 A 
ATOM      3  C   UNL     1      -3.550  13.234  -5.565  0.00  0.00    +0.000 A 
ATOM      4  C   UNL     1      -4.887  13.424  -5.211  0.00  0.00    +0.000 A 
ATOM      5  C   UNL     1      -5.206  14.164  -4.075  0.00  0.00    +0.000 A 
ATOM      6  C   UNL     1      -4.183  14.705  -3.307  0.00  0.00    +0.000 A 
ENDROOT
BRANCH   1   8
ATOM      7  C   UNL     1      -1.033  16.049  -3.372  0.00  0.00    +0.000 C 
ATOM      8  O   UNL     1      -1.939  15.118  -2.794  0.00  0.00    +0.000 OA
ENDBRANCH   1   8
BRANCH   6   9
ATOM      9  O   UNL     1      -4.522  15.429  -2.195  0.00  0.00    +0.000 OA
ATOM     10  H   UNL     1      -3.703  15.898  -1.945  0.00  0.00    +0.000 HD
ENDBRANCH   6   9
TORSDOF 2
ENDMDL
MODEL 8
REMARK VINA RESULT:    -3.190      2.509      3.759
REMARK INTER + INTRA:          -3.508
REMARK INTER:                  -3.462
REMARK INTRA:                  -0.046
REMARK UNBOUND:                -0.038
REMARK  Name = 
REMARK  3 active torsions:
REMARK  status: ('A' for Active; 'I' for Inactive)
REMARK    1  A    between atoms: C_1  and  O_2
REMARK    2  A    between atoms: O_2  and  C_3
REMARK    3  A    between atoms: C_8  and  O_9
REMARK                            x       y       z     vdW  Elec       q    Type
REMARK                         _______ _______ _______ _____ _____    ______ ____
ROOT
ATOM      1  C   UNL     1      -3.264  14.162  -5.434  0.00  0.00    +0.000 A 
ATOM      2  C   UNL     1      -4.076  15.267  -5.685  0.00  0.00    +0.000 A 
ATOM      3  C   UNL     1      -5.062  15.200  -6.677  0.00  0.00    +0.000 A 
ATOM      4  C   UNL     1      -5.240  14.031  -7.421  0.00  0.00    +0.000 A 
ATOM      5  C   UNL     1      -4.433  12.923  -7.175  0.00  0.00    +0.000 A 
ATOM      6  C   UNL     1      -3.457  12.999  -6.190  0.00  0.00    +0.000 A 
ENDROOT
BRANCH   1   8
ATOM      7  C   UNL     1      -2.560  14.609  -3.209  0.00  0.00    +0.000 C 
ATOM      8  O   UNL     1      -2.264  14.086  -4.498  0.00  0.00    +0.000 OA
ENDBRANCH   1   8
BRANCH   6   9
ATOM      9  O   UNL     1      -2.676  11.896  -5.967  0.00  0.00    +0.000 OA
ATOM     10  H   UNL     1      -1.830  12.097  -6.411  0.00  0.00    +0.000 HD
ENDBRANCH   6   9
TORSDOF 2
ENDMDL
