MODEL 1
REMARK VINA RESULT:    -3.697      0.000      0.000
REMARK INTER + INTRA:          -4.067
REMARK INTER:                  -4.021
REMARK INTRA:                  -0.046
REMARK UNBOUND:                -0.046
REMARK  Name = 
REMARK  3 active torsions:
REMARK  status: ('A' for Active; 'I' for Inactive)
REMARK    1  A    between atoms: C_1  and  O_2
REMARK    2  A    between atoms: O_2  and  C_3
REMARK    3  A    between atoms: C_8  and  O_9
REMARK                            x       y       z     vdW  Elec       q    Type
REMARK                         _______ _______ _______ _____ _____    ______ ____
ROOT
ATOM      1  C   UNL     1      -4.654  11.844  -6.278  0.00  0.00    +0.000 A 
ATOM      2  C   UNL     1      -4.893  12.284  -4.977  0.00  0.00    +0.000 A 
ATOM      3  C   UNL     1      -5.185  13.632  -4.737  0.00  0.00    +0.000 A 
ATOM      4  C   UNL     1      -5.239  14.544  -5.793  0.00  0.00    +0.000 A 
ATOM      5  C   UNL     1      -5.002  14.112  -7.096  0.00  0.00    +0.000 A 
ATOM      6  C   UNL     1      -4.712  12.772  -7.325  0.00  0.00    +0.000 A 
ENDROOT
BRANCH   1   8
ATOM      7  C   UNL     1      -5.134   9.526  -6.065  0.00  0.00    +0.000 C 
ATOM      8  O   UNL     1      -4.357  10.560  -6.658  0.00  0.00    +0.000 OA
ENDBRANCH   1   8
BRANCH   6   9
ATOM      9  O   UNL     1      -4.483  12.371  -8.614  0.00  0.00    +0.000 OA
ATOM     10  H   UNL     1      -5.367  12.159  -8.969  0.00  0.00    +0.000 HD
ENDBRANCH   6   9
TORSDOF 2
ENDMDL
MODEL 2
REMARK VINA RESULT:    -3.548      1.629      1.826
REMARK INTER + INTRA:          -3.905
REMARK INTER:                  -3.875
REMARK INTRA:                  -0.030
REMARK UNBOUND:                -0.046
REMARK  Name = 
REMARK  3 active torsions:
REMARK  status: ('A' for Active; 'I' for Inactive)
REMARK    1  A    between atoms: C_1  and  O_2
REMARK    2  A    between atoms: O_2  and  C_3
REMARK    3  A    between atoms: C_8  and  O_9
REMARK                            x       y       z     vdW  Elec       q    Type
REMARK                         _______ _______ _______ _____ _____    ______ ____
ROOT
ATOM      1  C   UNL     1      -4.662  12.441  -5.624  0.00  0.00    +0.000 A 
ATOM      2  C   UNL     1      -5.240  13.006  -4.488  0.00  0.00    +0.000 A 
ATOM      3  C   UNL     1      -4.529  13.951  -3.737  0.00  0.00    +0.000 A 
ATOM      4  C   UNL     1      -3.241  14.333  -4.117  0.00  0.00    +0.000 A 
ATOM      5  C   UNL     1      -2.657  13.773  -5.251  0.00  0.00    +0.000 A 
ATOM      6  C   UNL     1      -3.370  12.837  -5.990  0.00  0.00    +0.000 A 
ENDROOT
BRANCH   1   8
ATOM      7  C   UNL     1      -5.240  10.164  -5.984  0.00  0.00    +0.000 C 
ATOM      8  O   UNL     1      -5.239  11.509  -6.449  0.00  0.00    +0.000 OA
ENDBRANCH   1   8
BRANCH   6   9
ATOM      9  O   UNL     1      -2.774  12.300  -7.100  0.00  0.00    +0.000 OA
ATOM     10  H   UNL     1      -2.827  11.335  -6.968  0.00  0.00    +0.000 HD
ENDBRANCH   6   9
TORSDOF 2
ENDMDL
MODEL 3
REMARK VINA RESULT:    -3.479     12.142     13.323
REMARK INTER + INTRA:          -3.830
REMARK INTER:                  -3.792
REMARK INTRA:                  -0.039
REMARK UNBOUND:                -0.046
REMARK  Name = 
REMARK  3 active torsions:
REMARK  status: ('A' for Active; 'I' for Inactive)
REMARK    1  A    between atoms: C_1  and  O_2
REMARK    2  A    between atoms: O_2  and  C_3
REMARK    3  A    between atoms: C_8  and  O_9
REMARK                            x       y       z     vdW  Elec       q    Type
REMARK                         _______ _______ _______ _____ _____    ______ ____
ROOT
ATOM      1  C   UNL     1      -3.127  16.660   5.879  0.00  0.00    +0.000 A 
ATOM      2  C   UNL     1      -1.935  17.221   6.336  0.00  0.00    +0.000 A 
ATOM      3  C   UNL     1      -0.734  16.513   6.207  0.00  0.00    +0.000 A 
ATOM      4  C   UNL     1      -0.719  15.245   5.623  0.00  0.00    +0.000 A 
ATOM      5  C   UNL     1      -1.905  14.678   5.163  0.00  0.00    +0.000 A 
ATOM      6  C   UNL     1      -3.092  15.387   5.296  0.00  0.00    +0.000 A 
ENDROOT
BRANCH   1   8
ATOM      7  C   UNL     1      -4.537  18.286   6.885  0.00  0.00    +0.000 C 
ATOM      8  O   UNL     1      -4.371  17.235   5.941  0.00  0.00    +0.000 OA
ENDBRANCH   1   8
BRANCH   6   9
ATOM      9  O   UNL     1      -4.245  14.809   4.837  0.00  0.00    +0.000 OA
ATOM     10  H   UNL     1      -4.705  14.500   5.641  0.00  0.00    +0.000 HD
ENDBRANCH   6   9
TORSDOF 2
ENDMDL
MODEL 4
REMARK VINA RESULT:    -3.457     10.328     11.509
REMARK INTER + INTRA:          -3.806
REMARK INTER:                  -3.766
REMARK INTRA:                  -0.040
REMARK UNBOUND:                -0.046
REMARK  Name = 
REMARK  3 active torsions:
REMARK  status: ('A' for Active; 'I' for Inactive)
REMARK    1  A    between atoms: C_1  and  O_2
REMARK    2  A    between atoms: O_2  and  C_3
REMARK    3  A    between atoms: C_8  and  O_9
REMARK                            x       y       z     vdW  Elec       q    Type
REMARK                         _______ _______ _______ _____ _____    ______ ____
ROOT
ATOM      1  C   UNL     1      -1.268  16.080   3.355  0.00  0.00    +0.000 A 
ATOM      2  C   UNL     1      -0.963  15.000   4.182  0.00  0.00    +0.000 A 
ATOM      3  C   UNL     1      -1.724  14.763   5.333  0.00  0.00    +0.000 A 
ATOM      4  C   UNL     1      -2.791  15.603   5.662  0.00  0.00    +0.000 A 
ATOM      5  C   UNL     1      -3.102  16.683   4.840  0.00  0.00    +0.000 A 
ATOM      6  C   UNL     1      -2.341  16.911   3.700  0.00  0.00    +0.000 A 
ENDROOT
BRANCH   1   8
ATOM      7  C   UNL     1       0.062  15.385   1.513  0.00  0.00    +0.000 C 
ATOM      8  O   UNL     1      -0.611  16.431   2.203  0.00  0.00    +0.000 OA
ENDBRANCH   1   8
BRANCH   6   9
ATOM      9  O   UNL     1      -2.666  17.980   2.908  0.00  0.00    +0.000 OA
ATOM     10  H   UNL     1      -3.560  18.242   3.200  0.00  0.00    +0.000 HD
ENDBRANCH   6   9
TORSDOF 2
ENDMDL
MODEL 5
REMARK VINA RESULT:    -3.393      1.733      2.616
REMARK INTER + INTRA:          -3.736
REMARK INTER:                  -3.688
REMARK INTRA:                  -0.048
REMARK UNBOUND:                -0.046
REMARK  Name = 
REMARK  3 active torsions:
REMARK  status: ('A' for Active; 'I' for Inactive)
REMARK    1  A    between atoms: C_1  and  O_2
REMARK    2  A    between atoms: O_2  and  C_3
REMARK    3  A    between atoms: C_8  and  O_9
REMARK                            x       y       z     vdW  Elec       q    Type
REMARK                         _______ _______ _______ _____ _____    ______ ____
ROOT
ATOM      1  C   UNL     1      -4.604  13.170  -6.972  0.00  0.00    +0.000 A 
ATOM      2  C   UNL     1      -5.239  14.361  -6.620  0.00  0.00    +0.000 A 
ATOM      3  C   UNL     1      -4.770  15.108  -5.532  0.00  0.00    +0.000 A 
ATOM      4  C   UNL     1      -3.669  14.670  -4.794  0.00  0.00    +0.000 A 
ATOM      5  C   UNL     1      -3.029  13.482  -5.140  0.00  0.00    +0.000 A 
ATOM      6  C   UNL     1      -3.502  12.746  -6.220  0.00  0.00    +0.000 A 
ENDROOT
BRANCH   1   8
ATOM      7  C   UNL     1      -5.150  12.955  -9.274  0.00  0.00    +0.000 C 
ATOM      8  O   UNL     1      -4.954  12.340  -8.006  0.00  0.00    +0.000 OA
ENDBRANCH   1   8
BRANCH   6   9
ATOM      9  O   UNL     1      -2.857  11.582  -6.540  0.00  0.00    +0.000 OA
ATOM     10  H   UNL     1      -1.916  11.757  -6.346  0.00  0.00    +0.000 HD
ENDBRANCH   6   9
TORSDOF 2
ENDMDL
MODEL 6
REMARK VINA RESULT:    -3.330      1.490      3.030
REMARK INTER + INTRA:          -3.668
REMARK INTER:                  -3.629
REMARK INTRA:                  -0.039
REMARK UNBOUND:                -0.046
REMARK  Name = 
REMARK  3 active torsions:
REMARK  status: ('A' for Active; 'I' for Inactive)
REMARK    1  A    between atoms: C_1  and  O_2
REMARK    2  A    between atoms: O_2  and  C_3
REMARK    3  A    between atoms: C_8  and  O_9
REMARK                            x       y       z     vdW  Elec       q    Type
REMARK                         _______ _______ _______ _____ _____    ______ ____
ROOT
ATOM      1  C   UNL     1      -3.714  13.529  -6.709  0.00  0.00    +0.000 A 
ATOM      2  C   UNL     1      -3.715  13.896  -5.364  0.00  0.00    +0.000 A 
ATOM      3  C   UNL     1      -4.474  13.168  -4.440  0.00  0.00    +0.000 A 
ATOM      4  C   UNL     1      -5.236  12.074  -4.856  0.00  0.00    +0.000 A 
ATOM      5  C   UNL     1      -5.240  11.701  -6.198  0.00  0.00    +0.000 A 
ATOM      6  C   UNL     1      -4.484  12.429  -7.107  0.00  0.00    +0.000 A 
ENDROOT
BRANCH   1   8
ATOM      7  C   UNL     1      -2.657  15.506  -7.498  0.00  0.00    +0.000 C 
ATOM      8  O   UNL     1      -3.022  14.149  -7.718  0.00  0.00    +0.000 OA
ENDBRANCH   1   8
BRANCH   6   9
ATOM      9  O   UNL     1      -4.505  12.044  -8.421  0.00  0.00    +0.000 OA
ATOM     10  H   UNL     1      -5.369  12.349  -8.756  0.00  0.00    +0.000 HD
ENDBRANCH   6   9
TORSDOF 2
ENDMDL
MODEL 7
REMARK VINA RESULT:    -3.302     11.286     12.075
REMARK INTER + INTRA:          -3.638
REMARK INTER:                  -3.595
REMARK INTRA:                  -0.043
REMARK UNBOUND:                -0.046
REMARK  Name = 
REMARK  3 active torsions:
REMARK  status: ('A' for Active; 'I' for Inactive)
REMARK    1  A    between atoms: C_1  and  O_2
REMARK    2  A    between atoms: O_2  and  C_3
REMARK    3  A    between atoms: C_8  and  O_9
REMARK                            x       y       z     vdW  Elec       q    Type
REMARK                         _______ _______ _______ _____ _____    ______ ____
ROOT
ATOM      1  C   UNL     1      -3.147  16.570   4.526  0.00  0.00    +0.000 A 
ATOM      2  C   UNL     1      -2.940  15.472   5.360  0.00  0.00    +0.000 A 
ATOM      3  C   UNL     1      -1.781  14.698   5.223  0.00  0.00    +0.000 A 
ATOM      4  C   UNL     1      -0.827  15.017   4.254  0.00  0.00    +0.000 A 
ATOM      5  C   UNL     1      -1.027  16.112   3.417  0.00  0.00    +0.000 A 
ATOM      6  C   UNL     1      -2.180  16.874   3.560  0.00  0.00    +0.000 A 
ENDROOT
BRANCH   1   8
ATOM      7  C   UNL     1      -4.764  17.727   5.828  0.00  0.00    +0.000 C 
ATOM      8  O   UNL     1      -4.230  17.411   4.547  0.00  0.00    +0.000 OA
ENDBRANCH   1   8
BRANCH   6   9
ATOM      9  O   UNL     1      -2.355  17.946   2.726  0.00  0.00    +0.000 OA
ATOM     10  H   UNL     1      -3.181  17.753   2.243  0.00  0.00    +0.000 HD
ENDBRANCH   6   9
TORSDOF 2
ENDMDL
MODEL 8
REMARK VINA RESULT:    -3.242      3.791      4.872
REMARK INTER + INTRA:          -3.572
REMARK INTER:                  -3.519
REMARK INTRA:                  -0.053
REMARK UNBOUND:                -0.046
REMARK  Name = 
REMARK  3 active torsions:
REMARK  status: ('A' for Active; 'I' for Inactive)
REMARK    1  A    between atoms: C_1  and  O_2
REMARK    2  A    between atoms: O_2  and  C_3
REMARK    3  A    between atoms: C_8  and  O_9
REMARK                            x       y       z     vdW  Elec       q    Type
REMARK                         _______ _______ _______ _____ _____    ______ ____
ROOT
ATOM      1  C   UNL     1      -2.846  14.444  -3.706  0.00  0.00    +0.000 A 
ATOM      2  C   UNL     1      -2.596  13.706  -4.862  0.00  0.00    +0.000 A 
ATOM      3  C   UNL     1      -3.664  13.219  -5.626  0.00  0.00    +0.000 A 
ATOM      4  C   UNL     1      -4.982  13.468  -5.239  0.00  0.00    +0.000 A 
ATOM      5  C   UNL     1      -5.240  14.205  -4.086  0.00  0.00    +0.000 A 
ATOM      6  C   UNL     1      -4.175  14.684  -3.334  0.00  0.00    +0.000 A 
ENDROOT
BRANCH   1   8
ATOM      7  C   UNL     1      -1.104  16.030  -3.394  0.00  0.00    +0.000 C 
ATOM      8  O   UNL     1      -1.903  14.979  -2.865  0.00  0.00    +0.000 OA
ENDBRANCH   1   8
BRANCH   6   9
ATOM      9  O   UNL     1      -4.453  15.406  -2.204  0.00  0.00    +0.000 OA
ATOM     10  H   UNL     1      -3.685  15.259  -1.619  0.00  0.00    +0.000 HD
ENDBRANCH   6   9
TORSDOF 2
ENDMDL
