MODEL 1
REMARK VINA RESULT:    -4.564      0.000      0.000
REMARK INTER + INTRA:          -6.589
REMARK INTER:                  -6.165
REMARK INTRA:                  -0.424
REMARK UNBOUND:                -0.424
REMARK  Name = 
REMARK  10 active torsions:
REMARK  status: ('A' for Active; 'I' for Inactive)
REMARK    1  A    between atoms: C_1  and  C_2
REMARK    2  A    between atoms: C_5  and  N_8
REMARK    3  A    between atoms: N_8  and  C_9
REMARK    4  A    between atoms: N_8  and  C_13
REMARK    5  A    between atoms: C_9  and  C_10
REMARK    6  A    between atoms: C_10  and  C_11
REMARK    7  A    between atoms: C_10  and  O_12
REMARK    8  A    between atoms: C_13  and  C_14
REMARK    9  A    between atoms: C_14  and  C_15
REMARK   10  A    between atoms: C_14  and  O_16
REMARK                            x       y       z     vdW  Elec       q    Type
REMARK                         _______ _______ _______ _____ _____    ______ ____
ROOT
ATOM      1  N   UNL     1      -4.634  13.400  -6.221  0.00  0.00    +0.000 N 
ENDROOT
BRANCH   1   6
ATOM      2  C   UNL     1      -1.776  15.815  -1.825  0.00  0.00    +0.000 C 
ATOM      3  C   UNL     1      -2.508  15.166  -2.960  0.00  0.00    +0.000 A 
ATOM      4  C   UNL     1      -1.948  15.109  -4.231  0.00  0.00    +0.000 A 
ATOM      5  C   UNL     1      -2.651  14.526  -5.298  0.00  0.00    +0.000 A 
ATOM      6  C   UNL     1      -3.947  13.997  -5.157  0.00  0.00    +0.000 A 
ATOM      7  C   UNL     1      -4.481  14.071  -3.858  0.00  0.00    +0.000 A 
ATOM      8  C   UNL     1      -3.788  14.649  -2.782  0.00  0.00    +0.000 A 
ENDBRANCH   1   6
BRANCH   1   9
ATOM      9  C   UNL     1      -5.220  14.241  -7.293  0.00  0.00    +0.000 C 
BRANCH   9  10
ATOM     10  C   UNL     1      -4.563  13.998  -8.673  0.00  0.00    +0.000 C 
ATOM     11  C   UNL     1      -3.159  14.590  -8.720  0.00  0.00    +0.000 C 
BRANCH  10  12
ATOM     12  O   UNL     1      -4.464  12.595  -8.957  0.00  0.00    +0.000 OA
ATOM     13  H   UNL     1      -3.886  12.484  -9.730  0.00  0.00    +0.000 HD
ENDBRANCH  10  12
ENDBRANCH   9  10
ENDBRANCH   1   9
BRANCH   1  14
ATOM     14  C   UNL     1      -5.240  12.051  -6.085  0.00  0.00    +0.000 C 
BRANCH  14  15
ATOM     15  C   UNL     1      -4.170  10.938  -5.980  0.00  0.00    +0.000 C 
ATOM     16  C   UNL     1      -4.687   9.568  -6.403  0.00  0.00    +0.000 C 
BRANCH  15  17
ATOM     17  O   UNL     1      -3.019  11.238  -6.768  0.00  0.00    +0.000 OA
ATOM     18  H   UNL     1      -3.312  11.936  -7.387  0.00  0.00    +0.000 HD
ENDBRANCH  15  17
ENDBRANCH  14  15
ENDBRANCH   1  14
TORSDOF 7
ENDMDL
MODEL 2
REMARK VINA RESULT:    -4.479      2.959      4.523
REMARK INTER + INTRA:          -6.474
REMARK INTER:                  -5.953
REMARK INTRA:                  -0.522
REMARK UNBOUND:                -0.424
REMARK  Name = 
REMARK  10 active torsions:
REMARK  status: ('A' for Active; 'I' for Inactive)
REMARK    1  A    between atoms: C_1  and  C_2
REMARK    2  A    between atoms: C_5  and  N_8
REMARK    3  A    between atoms: N_8  and  C_9
REMARK    4  A    between atoms: N_8  and  C_13
REMARK    5  A    between atoms: C_9  and  C_10
REMARK    6  A    between atoms: C_10  and  C_11
REMARK    7  A    between atoms: C_10  and  O_12
REMARK    8  A    between atoms: C_13  and  C_14
REMARK    9  A    between atoms: C_14  and  C_15
REMARK   10  A    between atoms: C_14  and  O_16
REMARK                            x       y       z     vdW  Elec       q    Type
REMARK                         _______ _______ _______ _____ _____    ______ ____
ROOT
ATOM      1  N   UNL     1      -3.211  15.281  -5.329  0.00  0.00    +0.000 N 
ENDROOT
BRANCH   1   6
ATOM      2  C   UNL     1       1.869  17.627  -6.750  0.00  0.00    +0.000 C 
ATOM      3  C   UNL     1       0.543  17.041  -6.374  0.00  0.00    +0.000 A 
ATOM      4  C   UNL     1       0.334  16.500  -5.109  0.00  0.00    +0.000 A 
ATOM      5  C   UNL     1      -0.902  15.925  -4.772  0.00  0.00    +0.000 A 
ATOM      6  C   UNL     1      -1.974  15.839  -5.678  0.00  0.00    +0.000 A 
ATOM      7  C   UNL     1      -1.728  16.397  -6.946  0.00  0.00    +0.000 A 
ATOM      8  C   UNL     1      -0.498  16.977  -7.296  0.00  0.00    +0.000 A 
ENDBRANCH   1   6
BRANCH   1   9
ATOM      9  C   UNL     1      -3.838  14.259  -6.201  0.00  0.00    +0.000 C 
BRANCH   9  10
ATOM     10  C   UNL     1      -3.494  12.811  -5.772  0.00  0.00    +0.000 C 
ATOM     11  C   UNL     1      -4.745  12.063  -5.326  0.00  0.00    +0.000 C 
BRANCH  10  12
ATOM     12  O   UNL     1      -2.902  12.080  -6.855  0.00  0.00    +0.000 OA
ATOM     13  H   UNL     1      -2.077  11.681  -6.533  0.00  0.00    +0.000 HD
ENDBRANCH  10  12
ENDBRANCH   9  10
ENDBRANCH   1   9
BRANCH   1  14
ATOM     14  C   UNL     1      -4.152  15.998  -4.431  0.00  0.00    +0.000 C 
BRANCH  14  15
ATOM     15  C   UNL     1      -4.518  15.163  -3.181  0.00  0.00    +0.000 C 
ATOM     16  C   UNL     1      -3.313  14.482  -2.542  0.00  0.00    +0.000 C 
BRANCH  15  17
ATOM     17  O   UNL     1      -5.156  15.959  -2.183  0.00  0.00    +0.000 OA
ATOM     18  H   UNL     1      -5.991  15.491  -1.983  0.00  0.00    +0.000 HD
ENDBRANCH  15  17
ENDBRANCH  14  15
ENDBRANCH   1  14
TORSDOF 7
ENDMDL
MODEL 3
REMARK VINA RESULT:    -4.426      1.204      3.092
REMARK INTER + INTRA:          -6.403
REMARK INTER:                  -5.964
REMARK INTRA:                  -0.439
REMARK UNBOUND:                -0.424
REMARK  Name = 
REMARK  10 active torsions:
REMARK  status: ('A' for Active; 'I' for Inactive)
REMARK    1  A    between atoms: C_1  and  C_2
REMARK    2  A    between atoms: C_5  and  N_8
REMARK    3  A    between atoms: N_8  and  C_9
REMARK    4  A    between atoms: N_8  and  C_13
REMARK    5  A    between atoms: C_9  and  C_10
REMARK    6  A    between atoms: C_10  and  C_11
REMARK    7  A    between atoms: C_10  and  O_12
REMARK    8  A    between atoms: C_13  and  C_14
REMARK    9  A    between atoms: C_14  and  C_15
REMARK   10  A    between atoms: C_14  and  O_16
REMARK                            x       y       z     vdW  Elec       q    Type
REMARK                         _______ _______ _______ _____ _____    ______ ____
ROOT
ATOM      1  N   UNL     1      -4.471  13.057  -6.030  0.00  0.00    +0.000 N 
ENDROOT
BRANCH   1   6
ATOM      2  C   UNL     1      -1.623  16.035  -1.987  0.00  0.00    +0.000 C 
ATOM      3  C   UNL     1      -2.349  15.242  -3.030  0.00  0.00    +0.000 A 
ATOM      4  C   UNL     1      -1.874  15.173  -4.335  0.00  0.00    +0.000 A 
ATOM      5  C   UNL     1      -2.575  14.452  -5.316  0.00  0.00    +0.000 A 
ATOM      6  C   UNL     1      -3.787  13.790  -5.052  0.00  0.00    +0.000 A 
ATOM      7  C   UNL     1      -4.237  13.879  -3.722  0.00  0.00    +0.000 A 
ATOM      8  C   UNL     1      -3.545  14.594  -2.731  0.00  0.00    +0.000 A 
ENDBRANCH   1   6
BRANCH   1   9
ATOM      9  C   UNL     1      -4.054  11.670  -6.347  0.00  0.00    +0.000 C 
BRANCH   9  10
ATOM     10  C   UNL     1      -5.099  10.614  -5.911  0.00  0.00    +0.000 C 
ATOM     11  C   UNL     1      -4.691   9.220  -6.371  0.00  0.00    +0.000 C 
BRANCH  10  12
ATOM     12  O   UNL     1      -5.240  10.588  -4.484  0.00  0.00    +0.000 OA
ATOM     13  H   UNL     1      -4.416  10.924  -4.094  0.00  0.00    +0.000 HD
ENDBRANCH  10  12
ENDBRANCH   9  10
ENDBRANCH   1   9
BRANCH   1  14
ATOM     14  C   UNL     1      -5.240  13.737  -7.103  0.00  0.00    +0.000 C 
BRANCH  14  15
ATOM     15  C   UNL     1      -4.436  13.845  -8.421  0.00  0.00    +0.000 C 
ATOM     16  C   UNL     1      -5.112  13.147  -9.595  0.00  0.00    +0.000 C 
BRANCH  15  17
ATOM     17  O   UNL     1      -4.206  15.205  -8.788  0.00  0.00    +0.000 OA
ATOM     18  H   UNL     1      -3.359  15.443  -8.361  0.00  0.00    +0.000 HD
ENDBRANCH  15  17
ENDBRANCH  14  15
ENDBRANCH   1  14
TORSDOF 7
ENDMDL
MODEL 4
REMARK VINA RESULT:    -4.304      0.821      3.140
REMARK INTER + INTRA:          -6.239
REMARK INTER:                  -5.643
REMARK INTRA:                  -0.596
REMARK UNBOUND:                -0.424
REMARK  Name = 
REMARK  10 active torsions:
REMARK  status: ('A' for Active; 'I' for Inactive)
REMARK    1  A    between atoms: C_1  and  C_2
REMARK    2  A    between atoms: C_5  and  N_8
REMARK    3  A    between atoms: N_8  and  C_9
REMARK    4  A    between atoms: N_8  and  C_13
REMARK    5  A    between atoms: C_9  and  C_10
REMARK    6  A    between atoms: C_10  and  C_11
REMARK    7  A    between atoms: C_10  and  O_12
REMARK    8  A    between atoms: C_13  and  C_14
REMARK    9  A    between atoms: C_14  and  C_15
REMARK   10  A    between atoms: C_14  and  O_16
REMARK                            x       y       z     vdW  Elec       q    Type
REMARK                         _______ _______ _______ _____ _____    ______ ____
ROOT
ATOM      1  N   UNL     1      -4.873  13.804  -6.569  0.00  0.00    +0.000 N 
ENDROOT
BRANCH   1   6
ATOM      2  C   UNL     1      -1.879  15.360  -1.885  0.00  0.00    +0.000 C 
ATOM      3  C   UNL     1      -2.663  14.980  -3.104  0.00  0.00    +0.000 A 
ATOM      4  C   UNL     1      -3.989  14.575  -3.002  0.00  0.00    +0.000 A 
ATOM      5  C   UNL     1      -4.710  14.191  -4.145  0.00  0.00    +0.000 A 
ATOM      6  C   UNL     1      -4.142  14.169  -5.432  0.00  0.00    +0.000 A 
ATOM      7  C   UNL     1      -2.800  14.587  -5.497  0.00  0.00    +0.000 A 
ATOM      8  C   UNL     1      -2.069  14.975  -4.363  0.00  0.00    +0.000 A 
ENDBRANCH   1   6
BRANCH   1   9
ATOM      9  C   UNL     1      -5.240  12.385  -6.793  0.00  0.00    +0.000 C 
BRANCH   9  10
ATOM     10  C   UNL     1      -4.194  11.397  -6.221  0.00  0.00    +0.000 C 
ATOM     11  C   UNL     1      -4.733   9.971  -6.222  0.00  0.00    +0.000 C 
BRANCH  10  12
ATOM     12  O   UNL     1      -2.988  11.417  -6.997  0.00  0.00    +0.000 OA
ATOM     13  H   UNL     1      -2.746  10.498  -7.202  0.00  0.00    +0.000 HD
ENDBRANCH  10  12
ENDBRANCH   9  10
ENDBRANCH   1   9
BRANCH   1  14
ATOM     14  C   UNL     1      -4.864  14.646  -7.793  0.00  0.00    +0.000 C 
BRANCH  14  15
ATOM     15  C   UNL     1      -4.172  13.940  -8.983  0.00  0.00    +0.000 C 
ATOM     16  C   UNL     1      -4.452  14.610 -10.323  0.00  0.00    +0.000 C 
BRANCH  15  17
ATOM     17  O   UNL     1      -2.758  13.876  -8.809  0.00  0.00    +0.000 OA
ATOM     18  H   UNL     1      -2.627  13.360  -7.987  0.00  0.00    +0.000 HD
ENDBRANCH  15  17
ENDBRANCH  14  15
ENDBRANCH   1  14
TORSDOF 7
ENDMDL
MODEL 5
REMARK VINA RESULT:    -4.235      1.653      4.150
REMARK INTER + INTRA:          -6.145
REMARK INTER:                  -5.472
REMARK INTRA:                  -0.673
REMARK UNBOUND:                -0.424
REMARK  Name = 
REMARK  10 active torsions:
REMARK  status: ('A' for Active; 'I' for Inactive)
REMARK    1  A    between atoms: C_1  and  C_2
REMARK    2  A    between atoms: C_5  and  N_8
REMARK    3  A    between atoms: N_8  and  C_9
REMARK    4  A    between atoms: N_8  and  C_13
REMARK    5  A    between atoms: C_9  and  C_10
REMARK    6  A    between atoms: C_10  and  C_11
REMARK    7  A    between atoms: C_10  and  O_12
REMARK    8  A    between atoms: C_13  and  C_14
REMARK    9  A    between atoms: C_14  and  C_15
REMARK   10  A    between atoms: C_14  and  O_16
REMARK                            x       y       z     vdW  Elec       q    Type
REMARK                         _______ _______ _______ _____ _____    ______ ____
ROOT
ATOM      1  N   UNL     1      -4.781  13.627  -6.002  0.00  0.00    +0.000 N 
ENDROOT
BRANCH   1   6
ATOM      2  C   UNL     1      -3.060  17.956  -9.413  0.00  0.00    +0.000 C 
ATOM      3  C   UNL     1      -3.524  16.826  -8.545  0.00  0.00    +0.000 A 
ATOM      4  C   UNL     1      -4.525  17.016  -7.599  0.00  0.00    +0.000 A 
ATOM      5  C   UNL     1      -4.935  15.960  -6.768  0.00  0.00    +0.000 A 
ATOM      6  C   UNL     1      -4.354  14.680  -6.821  0.00  0.00    +0.000 A 
ATOM      7  C   UNL     1      -3.346  14.524  -7.791  0.00  0.00    +0.000 A 
ATOM      8  C   UNL     1      -2.929  15.570  -8.630  0.00  0.00    +0.000 A 
ENDBRANCH   1   6
BRANCH   1   9
ATOM      9  C   UNL     1      -4.370  13.580  -4.578  0.00  0.00    +0.000 C 
BRANCH   9  10
ATOM     10  C   UNL     1      -2.942  14.131  -4.347  0.00  0.00    +0.000 C 
ATOM     11  C   UNL     1      -2.739  14.524  -2.888  0.00  0.00    +0.000 C 
BRANCH  10  12
ATOM     12  O   UNL     1      -1.951  13.150  -4.684  0.00  0.00    +0.000 OA
ATOM     13  H   UNL     1      -2.221  12.302  -4.295  0.00  0.00    +0.000 HD
ENDBRANCH  10  12
ENDBRANCH   9  10
ENDBRANCH   1   9
BRANCH   1  14
ATOM     14  C   UNL     1      -5.185  12.319  -6.580  0.00  0.00    +0.000 C 
BRANCH  14  15
ATOM     15  C   UNL     1      -4.282  11.161  -6.091  0.00  0.00    +0.000 C 
ATOM     16  C   UNL     1      -4.868   9.783  -6.375  0.00  0.00    +0.000 C 
BRANCH  15  17
ATOM     17  O   UNL     1      -2.984  11.219  -6.682  0.00  0.00    +0.000 OA
ATOM     18  H   UNL     1      -2.364  11.255  -5.926  0.00  0.00    +0.000 HD
ENDBRANCH  15  17
ENDBRANCH  14  15
ENDBRANCH   1  14
TORSDOF 7
ENDMDL
MODEL 6
REMARK VINA RESULT:    -4.210      1.545      5.177
REMARK INTER + INTRA:          -6.111
REMARK INTER:                  -5.507
REMARK INTRA:                  -0.603
REMARK UNBOUND:                -0.424
REMARK  Name = 
REMARK  10 active torsions:
REMARK  status: ('A' for Active; 'I' for Inactive)
REMARK    1  A    between atoms: C_1  and  C_2
REMARK    2  A    between atoms: C_5  and  N_8
REMARK    3  A    between atoms: N_8  and  C_9
REMARK    4  A    between atoms: N_8  and  C_13
REMARK    5  A    between atoms: C_9  and  C_10
REMARK    6  A    between atoms: C_10  and  C_11
REMARK    7  A    between atoms: C_10  and  O_12
REMARK    8  A    between atoms: C_13  and  C_14
REMARK    9  A    between atoms: C_14  and  C_15
REMARK   10  A    between atoms: C_14  and  O_16
REMARK                            x       y       z     vdW  Elec       q    Type
REMARK                         _______ _______ _______ _____ _____    ______ ____
ROOT
ATOM      1  N   UNL     1      -4.091  14.054  -6.439  0.00  0.00    +0.000 N 
ENDROOT
BRANCH   1   6
ATOM      2  C   UNL     1      -2.702  14.890 -11.979  0.00  0.00    +0.000 C 
ATOM      3  C   UNL     1      -3.050  14.651 -10.542  0.00  0.00    +0.000 A 
ATOM      4  C   UNL     1      -4.226  13.998 -10.190  0.00  0.00    +0.000 A 
ATOM      5  C   UNL     1      -4.562  13.804  -8.841  0.00  0.00    +0.000 A 
ATOM      6  C   UNL     1      -3.760  14.268  -7.782  0.00  0.00    +0.000 A 
ATOM      7  C   UNL     1      -2.577  14.922  -8.175  0.00  0.00    +0.000 A 
ATOM      8  C   UNL     1      -2.229  15.121  -9.521  0.00  0.00    +0.000 A 
ENDBRANCH   1   6
BRANCH   1   9
ATOM      9  C   UNL     1      -5.061  12.994  -6.072  0.00  0.00    +0.000 C 
BRANCH   9  10
ATOM     10  C   UNL     1      -4.388  11.618  -5.844  0.00  0.00    +0.000 C 
ATOM     11  C   UNL     1      -5.203  10.500  -6.484  0.00  0.00    +0.000 C 
BRANCH  10  12
ATOM     12  O   UNL     1      -3.071  11.588  -6.411  0.00  0.00    +0.000 OA
ATOM     13  H   UNL     1      -2.527  12.245  -5.945  0.00  0.00    +0.000 HD
ENDBRANCH  10  12
ENDBRANCH   9  10
ENDBRANCH   1   9
BRANCH   1  14
ATOM     14  C   UNL     1      -3.927  15.128  -5.426  0.00  0.00    +0.000 C 
BRANCH  14  15
ATOM     15  C   UNL     1      -2.892  14.753  -4.338  0.00  0.00    +0.000 C 
ATOM     16  C   UNL     1      -3.531  14.249  -3.050  0.00  0.00    +0.000 C 
BRANCH  15  17
ATOM     17  O   UNL     1      -1.981  13.756  -4.799  0.00  0.00    +0.000 OA
ATOM     18  H   UNL     1      -1.127  14.222  -4.902  0.00  0.00    +0.000 HD
ENDBRANCH  15  17
ENDBRANCH  14  15
ENDBRANCH   1  14
TORSDOF 7
ENDMDL
MODEL 7
REMARK VINA RESULT:    -4.187      3.031      4.645
REMARK INTER + INTRA:          -6.080
REMARK INTER:                  -5.593
REMARK INTRA:                  -0.487
REMARK UNBOUND:                -0.424
REMARK  Name = 
REMARK  10 active torsions:
REMARK  status: ('A' for Active; 'I' for Inactive)
REMARK    1  A    between atoms: C_1  and  C_2
REMARK    2  A    between atoms: C_5  and  N_8
REMARK    3  A    between atoms: N_8  and  C_9
REMARK    4  A    between atoms: N_8  and  C_13
REMARK    5  A    between atoms: C_9  and  C_10
REMARK    6  A    between atoms: C_10  and  C_11
REMARK    7  A    between atoms: C_10  and  O_12
REMARK    8  A    between atoms: C_13  and  C_14
REMARK    9  A    between atoms: C_14  and  C_15
REMARK   10  A    between atoms: C_14  and  O_16
REMARK                            x       y       z     vdW  Elec       q    Type
REMARK                         _______ _______ _______ _____ _____    ______ ____
ROOT
ATOM      1  N   UNL     1      -2.467  15.200  -4.991  0.00  0.00    +0.000 N 
ENDROOT
BRANCH   1   6
ATOM      2  C   UNL     1       1.949  18.210  -7.175  0.00  0.00    +0.000 C 
ATOM      3  C   UNL     1       0.813  17.408  -6.616  0.00  0.00    +0.000 A 
ATOM      4  C   UNL     1      -0.324  17.154  -7.376  0.00  0.00    +0.000 A 
ATOM      5  C   UNL     1      -1.397  16.427  -6.837  0.00  0.00    +0.000 A 
ATOM      6  C   UNL     1      -1.401  15.941  -5.516  0.00  0.00    +0.000 A 
ATOM      7  C   UNL     1      -0.235  16.215  -4.778  0.00  0.00    +0.000 A 
ATOM      8  C   UNL     1       0.847  16.938  -5.306  0.00  0.00    +0.000 A 
ENDBRANCH   1   6
BRANCH   1   9
ATOM      9  C   UNL     1      -2.413  14.707  -3.594  0.00  0.00    +0.000 C 
BRANCH   9  10
ATOM     10  C   UNL     1      -3.411  15.435  -2.661  0.00  0.00    +0.000 C 
ATOM     11  C   UNL     1      -3.558  16.899  -3.057  0.00  0.00    +0.000 C 
BRANCH  10  12
ATOM     12  O   UNL     1      -4.709  14.826  -2.721  0.00  0.00    +0.000 OA
ATOM     13  H   UNL     1      -4.861  14.358  -1.883  0.00  0.00    +0.000 HD
ENDBRANCH  10  12
ENDBRANCH   9  10
ENDBRANCH   1   9
BRANCH   1  14
ATOM     14  C   UNL     1      -3.400  14.459  -5.879  0.00  0.00    +0.000 C 
BRANCH  14  15
ATOM     15  C   UNL     1      -3.382  12.936  -5.605  0.00  0.00    +0.000 C 
ATOM     16  C   UNL     1      -4.758  12.369  -5.279  0.00  0.00    +0.000 C 
BRANCH  15  17
ATOM     17  O   UNL     1      -2.855  12.207  -6.712  0.00  0.00    +0.000 OA
ATOM     18  H   UNL     1      -3.472  12.387  -7.450  0.00  0.00    +0.000 HD
ENDBRANCH  15  17
ENDBRANCH  14  15
ENDBRANCH   1  14
TORSDOF 7
ENDMDL
MODEL 8
REMARK VINA RESULT:    -4.025     11.317     13.495
REMARK INTER + INTRA:          -5.861
REMARK INTER:                  -5.315
REMARK INTRA:                  -0.545
REMARK UNBOUND:                -0.424
REMARK  Name = 
REMARK  10 active torsions:
REMARK  status: ('A' for Active; 'I' for Inactive)
REMARK    1  A    between atoms: C_1  and  C_2
REMARK    2  A    between atoms: C_5  and  N_8
REMARK    3  A    between atoms: N_8  and  C_9
REMARK    4  A    between atoms: N_8  and  C_13
REMARK    5  A    between atoms: C_9  and  C_10
REMARK    6  A    between atoms: C_10  and  C_11
REMARK    7  A    between atoms: C_10  and  O_12
REMARK    8  A    between atoms: C_13  and  C_14
REMARK    9  A    between atoms: C_14  and  C_15
REMARK   10  A    between atoms: C_14  and  O_16
REMARK                            x       y       z     vdW  Elec       q    Type
REMARK                         _______ _______ _______ _____ _____    ______ ____
ROOT
ATOM      1  N   UNL     1      -0.653  17.468   5.885  0.00  0.00    +0.000 N 
ENDROOT
BRANCH   1   6
ATOM      2  C   UNL     1       4.889  17.247   7.485  0.00  0.00    +0.000 C 
ATOM      3  C   UNL     1       3.456  17.288   7.051  0.00  0.00    +0.000 A 
ATOM      4  C   UNL     1       3.007  18.258   6.160  0.00  0.00    +0.000 A 
ATOM      5  C   UNL     1       1.657  18.310   5.780  0.00  0.00    +0.000 A 
ATOM      6  C   UNL     1       0.689  17.422   6.283  0.00  0.00    +0.000 A 
ATOM      7  C   UNL     1       1.178  16.454   7.180  0.00  0.00    +0.000 A 
ATOM      8  C   UNL     1       2.527  16.389   7.567  0.00  0.00    +0.000 A 
ENDBRANCH   1   6
BRANCH   1   9
ATOM      9  C   UNL     1      -1.114  16.659   4.731  0.00  0.00    +0.000 C 
BRANCH   9  10
ATOM     10  C   UNL     1      -1.487  15.209   5.126  0.00  0.00    +0.000 C 
ATOM     11  C   UNL     1      -2.999  15.024   5.160  0.00  0.00    +0.000 C 
BRANCH  10  12
ATOM     12  O   UNL     1      -0.945  14.265   4.192  0.00  0.00    +0.000 OA
ATOM     13  H   UNL     1      -1.583  14.159   3.466  0.00  0.00    +0.000 HD
ENDBRANCH  10  12
ENDBRANCH   9  10
ENDBRANCH   1   9
BRANCH   1  14
ATOM     14  C   UNL     1      -1.513  18.634   6.213  0.00  0.00    +0.000 C 
BRANCH  14  15
ATOM     15  C   UNL     1      -2.570  18.296   7.292  0.00  0.00    +0.000 C 
ATOM     16  C   UNL     1      -3.981  18.169   6.730  0.00  0.00    +0.000 C 
BRANCH  15  17
ATOM     17  O   UNL     1      -2.256  17.083   7.975  0.00  0.00    +0.000 OA
ATOM     18  H   UNL     1      -3.067  16.539   7.909  0.00  0.00    +0.000 HD
ENDBRANCH  15  17
ENDBRANCH  14  15
ENDBRANCH   1  14
TORSDOF 7
ENDMDL
MODEL 9
REMARK VINA RESULT:    -3.997      2.412      4.764
REMARK INTER + INTRA:          -5.823
REMARK INTER:                  -5.234
REMARK INTRA:                  -0.590
REMARK UNBOUND:                -0.424
REMARK  Name = 
REMARK  10 active torsions:
REMARK  status: ('A' for Active; 'I' for Inactive)
REMARK    1  A    between atoms: C_1  and  C_2
REMARK    2  A    between atoms: C_5  and  N_8
REMARK    3  A    between atoms: N_8  and  C_9
REMARK    4  A    between atoms: N_8  and  C_13
REMARK    5  A    between atoms: C_9  and  C_10
REMARK    6  A    between atoms: C_10  and  C_11
REMARK    7  A    between atoms: C_10  and  O_12
REMARK    8  A    between atoms: C_13  and  C_14
REMARK    9  A    between atoms: C_14  and  C_15
REMARK   10  A    between atoms: C_14  and  O_16
REMARK                            x       y       z     vdW  Elec       q    Type
REMARK                         _______ _______ _______ _____ _____    ______ ____
ROOT
ATOM      1  N   UNL     1      -3.284  14.214  -5.612  0.00  0.00    +0.000 N 
ENDROOT
BRANCH   1   6
ATOM      2  C   UNL     1      -1.068  17.408  -9.880  0.00  0.00    +0.000 C 
ATOM      3  C   UNL     1      -1.621  16.567  -8.771  0.00  0.00    +0.000 A 
ATOM      4  C   UNL     1      -2.312  15.391  -9.043  0.00  0.00    +0.000 A 
ATOM      5  C   UNL     1      -2.855  14.622  -8.001  0.00  0.00    +0.000 A 
ATOM      6  C   UNL     1      -2.757  14.996  -6.648  0.00  0.00    +0.000 A 
ATOM      7  C   UNL     1      -2.051  16.189  -6.410  0.00  0.00    +0.000 A 
ATOM      8  C   UNL     1      -1.501  16.967  -7.443  0.00  0.00    +0.000 A 
ENDBRANCH   1   6
BRANCH   1   9
ATOM      9  C   UNL     1      -3.359  12.741  -5.758  0.00  0.00    +0.000 C 
BRANCH   9  10
ATOM     10  C   UNL     1      -4.815  12.214  -5.789  0.00  0.00    +0.000 C 
ATOM     11  C   UNL     1      -5.238  11.863  -7.210  0.00  0.00    +0.000 C 
BRANCH  10  12
ATOM     12  O   UNL     1      -4.955  11.038  -4.980  0.00  0.00    +0.000 OA
ATOM     13  H   UNL     1      -4.585  10.287  -5.474  0.00  0.00    +0.000 HD
ENDBRANCH  10  12
ENDBRANCH   9  10
ENDBRANCH   1   9
BRANCH   1  14
ATOM     14  C   UNL     1      -4.219  14.791  -4.612  0.00  0.00    +0.000 C 
BRANCH  14  15
ATOM     15  C   UNL     1      -3.714  14.599  -3.162  0.00  0.00    +0.000 C 
ATOM     16  C   UNL     1      -2.252  14.988  -2.980  0.00  0.00    +0.000 C 
BRANCH  15  17
ATOM     17  O   UNL     1      -4.490  15.350  -2.230  0.00  0.00    +0.000 OA
ATOM     18  H   UNL     1      -3.974  15.333  -1.399  0.00  0.00    +0.000 HD
ENDBRANCH  15  17
ENDBRANCH  14  15
ENDBRANCH   1  14
TORSDOF 7
ENDMDL
