MODEL 1
REMARK VINA RESULT:    -4.574      0.000      0.000
REMARK INTER + INTRA:          -6.611
REMARK INTER:                  -6.178
REMARK INTRA:                  -0.432
REMARK UNBOUND:                -0.432
REMARK  Name = 
REMARK  10 active torsions:
REMARK  status: ('A' for Active; 'I' for Inactive)
REMARK    1  A    between atoms: C_1  and  C_2
REMARK    2  A    between atoms: C_5  and  N_8
REMARK    3  A    between atoms: N_8  and  C_9
REMARK    4  A    between atoms: N_8  and  C_13
REMARK    5  A    between atoms: C_9  and  C_10
REMARK    6  A    between atoms: C_10  and  C_11
REMARK    7  A    between atoms: C_10  and  O_12
REMARK    8  A    between atoms: C_13  and  C_14
REMARK    9  A    between atoms: C_14  and  C_15
REMARK   10  A    between atoms: C_14  and  O_16
REMARK                            x       y       z     vdW  Elec       q    Type
REMARK                         _______ _______ _______ _____ _____    ______ ____
ROOT
ATOM      1  N   UNL     1      -4.641  13.330  -6.206  0.00  0.00    +0.000 N 
ENDROOT
BRANCH   1   6
ATOM      2  C   UNL     1      -1.752  15.792  -1.856  0.00  0.00    +0.000 C 
ATOM      3  C   UNL     1      -2.493  15.131  -2.978  0.00  0.00    +0.000 A 
ATOM      4  C   UNL     1      -1.925  15.025  -4.243  0.00  0.00    +0.000 A 
ATOM      5  C   UNL     1      -2.636  14.431  -5.299  0.00  0.00    +0.000 A 
ATOM      6  C   UNL     1      -3.945  13.939  -5.153  0.00  0.00    +0.000 A 
ATOM      7  C   UNL     1      -4.486  14.060  -3.860  0.00  0.00    +0.000 A 
ATOM      8  C   UNL     1      -3.786  14.650  -2.795  0.00  0.00    +0.000 A 
ENDBRANCH   1   6
BRANCH   1   9
ATOM      9  C   UNL     1      -5.240  14.159  -7.279  0.00  0.00    +0.000 C 
BRANCH   9  10
ATOM     10  C   UNL     1      -4.596  13.906  -8.664  0.00  0.00    +0.000 C 
ATOM     11  C   UNL     1      -3.197  14.509  -8.732  0.00  0.00    +0.000 C 
BRANCH  10  12
ATOM     12  O   UNL     1      -4.488  12.502  -8.933  0.00  0.00    +0.000 OA
ATOM     13  H   UNL     1      -4.127  12.393  -9.828  0.00  0.00    +0.000 HD
ENDBRANCH  10  12
ENDBRANCH   9  10
ENDBRANCH   1   9
BRANCH   1  14
ATOM     14  C   UNL     1      -5.240  11.980  -6.052  0.00  0.00    +0.000 C 
BRANCH  14  15
ATOM     15  C   UNL     1      -4.165  10.869  -5.971  0.00  0.00    +0.000 C 
ATOM     16  C   UNL     1      -4.685   9.500  -6.393  0.00  0.00    +0.000 C 
BRANCH  15  17
ATOM     17  O   UNL     1      -3.028  11.177  -6.775  0.00  0.00    +0.000 OA
ATOM     18  H   UNL     1      -3.375  11.250  -7.687  0.00  0.00    +0.000 HD
ENDBRANCH  15  17
ENDBRANCH  14  15
ENDBRANCH   1  14
TORSDOF 7
ENDMDL
MODEL 2
REMARK VINA RESULT:    -4.468      2.926      4.463
REMARK INTER + INTRA:          -6.467
REMARK INTER:                  -5.981
REMARK INTRA:                  -0.486
REMARK UNBOUND:                -0.432
REMARK  Name = 
REMARK  10 active torsions:
REMARK  status: ('A' for Active; 'I' for Inactive)
REMARK    1  A    between atoms: C_1  and  C_2
REMARK    2  A    between atoms: C_5  and  N_8
REMARK    3  A    between atoms: N_8  and  C_9
REMARK    4  A    between atoms: N_8  and  C_13
REMARK    5  A    between atoms: C_9  and  C_10
REMARK    6  A    between atoms: C_10  and  C_11
REMARK    7  A    between atoms: C_10  and  O_12
REMARK    8  A    between atoms: C_13  and  C_14
REMARK    9  A    between atoms: C_14  and  C_15
REMARK   10  A    between atoms: C_14  and  O_16
REMARK                            x       y       z     vdW  Elec       q    Type
REMARK                         _______ _______ _______ _____ _____    ______ ____
ROOT
ATOM      1  N   UNL     1      -3.324  15.222  -5.353  0.00  0.00    +0.000 N 
ENDROOT
BRANCH   1   6
ATOM      2  C   UNL     1       1.784  17.572  -6.662  0.00  0.00    +0.000 C 
ATOM      3  C   UNL     1       0.450  16.984  -6.315  0.00  0.00    +0.000 A 
ATOM      4  C   UNL     1       0.212  16.447  -5.055  0.00  0.00    +0.000 A 
ATOM      5  C   UNL     1      -1.030  15.870  -4.745  0.00  0.00    +0.000 A 
ATOM      6  C   UNL     1      -2.081  15.780  -5.675  0.00  0.00    +0.000 A 
ATOM      7  C   UNL     1      -1.806  16.336  -6.938  0.00  0.00    +0.000 A 
ATOM      8  C   UNL     1      -0.569  16.917  -7.261  0.00  0.00    +0.000 A 
ENDBRANCH   1   6
BRANCH   1   9
ATOM      9  C   UNL     1      -3.928  14.194  -6.234  0.00  0.00    +0.000 C 
BRANCH   9  10
ATOM     10  C   UNL     1      -3.571  12.750  -5.805  0.00  0.00    +0.000 C 
ATOM     11  C   UNL     1      -4.820  11.976  -5.401  0.00  0.00    +0.000 C 
BRANCH  10  12
ATOM     12  O   UNL     1      -2.934  12.037  -6.874  0.00  0.00    +0.000 OA
ATOM     13  H   UNL     1      -3.226  12.430  -7.714  0.00  0.00    +0.000 HD
ENDBRANCH  10  12
ENDBRANCH   9  10
ENDBRANCH   1   9
BRANCH   1  14
ATOM     14  C   UNL     1      -4.289  15.942  -4.482  0.00  0.00    +0.000 C 
BRANCH  14  15
ATOM     15  C   UNL     1      -4.644  15.134  -3.211  0.00  0.00    +0.000 C 
ATOM     16  C   UNL     1      -3.446  14.411  -2.605  0.00  0.00    +0.000 C 
BRANCH  15  17
ATOM     17  O   UNL     1      -5.216  15.964  -2.201  0.00  0.00    +0.000 OA
ATOM     18  H   UNL     1      -5.711  15.351  -1.621  0.00  0.00    +0.000 HD
ENDBRANCH  15  17
ENDBRANCH  14  15
ENDBRANCH   1  14
TORSDOF 7
ENDMDL
MODEL 3
REMARK VINA RESULT:    -4.238      1.695      4.157
REMARK INTER + INTRA:          -6.156
REMARK INTER:                  -5.471
REMARK INTRA:                  -0.685
REMARK UNBOUND:                -0.432
REMARK  Name = 
REMARK  10 active torsions:
REMARK  status: ('A' for Active; 'I' for Inactive)
REMARK    1  A    between atoms: C_1  and  C_2
REMARK    2  A    between atoms: C_5  and  N_8
REMARK    3  A    between atoms: N_8  and  C_9
REMARK    4  A    between atoms: N_8  and  C_13
REMARK    5  A    between atoms: C_9  and  C_10
REMARK    6  A    between atoms: C_10  and  C_11
REMARK    7  A    between atoms: C_10  and  O_12
REMARK    8  A    between atoms: C_13  and  C_14
REMARK    9  A    between atoms: C_14  and  C_15
REMARK   10  A    between atoms: C_14  and  O_16
REMARK                            x       y       z     vdW  Elec       q    Type
REMARK                         _______ _______ _______ _____ _____    ______ ____
ROOT
ATOM      1  N   UNL     1      -4.805  13.598  -6.053  0.00  0.00    +0.000 N 
ENDROOT
BRANCH   1   6
ATOM      2  C   UNL     1      -3.107  17.976  -9.411  0.00  0.00    +0.000 C 
ATOM      3  C   UNL     1      -3.565  16.833  -8.557  0.00  0.00    +0.000 A 
ATOM      4  C   UNL     1      -4.561  17.009  -7.603  0.00  0.00    +0.000 A 
ATOM      5  C   UNL     1      -4.965  15.942  -6.784  0.00  0.00    +0.000 A 
ATOM      6  C   UNL     1      -4.384  14.663  -6.860  0.00  0.00    +0.000 A 
ATOM      7  C   UNL     1      -3.382  14.521  -7.837  0.00  0.00    +0.000 A 
ATOM      8  C   UNL     1      -2.970  15.579  -8.663  0.00  0.00    +0.000 A 
ENDBRANCH   1   6
BRANCH   1   9
ATOM      9  C   UNL     1      -4.419  13.550  -4.623  0.00  0.00    +0.000 C 
BRANCH   9  10
ATOM     10  C   UNL     1      -3.014  14.147  -4.361  0.00  0.00    +0.000 C 
ATOM     11  C   UNL     1      -2.839  14.502  -2.889  0.00  0.00    +0.000 C 
BRANCH  10  12
ATOM     12  O   UNL     1      -1.984  13.215  -4.718  0.00  0.00    +0.000 OA
ATOM     13  H   UNL     1      -1.262  13.302  -4.073  0.00  0.00    +0.000 HD
ENDBRANCH  10  12
ENDBRANCH   9  10
ENDBRANCH   1   9
BRANCH   1  14
ATOM     14  C   UNL     1      -5.175  12.286  -6.644  0.00  0.00    +0.000 C 
BRANCH  14  15
ATOM     15  C   UNL     1      -4.275  11.138  -6.128  0.00  0.00    +0.000 C 
ATOM     16  C   UNL     1      -4.846   9.754  -6.412  0.00  0.00    +0.000 C 
BRANCH  15  17
ATOM     17  O   UNL     1      -2.966  11.200  -6.694  0.00  0.00    +0.000 OA
ATOM     18  H   UNL     1      -3.011  10.642  -7.496  0.00  0.00    +0.000 HD
ENDBRANCH  15  17
ENDBRANCH  14  15
ENDBRANCH   1  14
TORSDOF 7
ENDMDL
MODEL 4
REMARK VINA RESULT:    -4.228      1.555      5.173
REMARK INTER + INTRA:          -6.144
REMARK INTER:                  -5.534
REMARK INTRA:                  -0.609
REMARK UNBOUND:                -0.432
REMARK  Name = 
REMARK  10 active torsions:
REMARK  status: ('A' for Active; 'I' for Inactive)
REMARK    1  A    between atoms: C_1  and  C_2
REMARK    2  A    between atoms: C_5  and  N_8
REMARK    3  A    between atoms: N_8  and  C_9
REMARK    4  A    between atoms: N_8  and  C_13
REMARK    5  A    between atoms: C_9  and  C_10
REMARK    6  A    between atoms: C_10  and  C_11
REMARK    7  A    between atoms: C_10  and  O_12
REMARK    8  A    between atoms: C_13  and  C_14
REMARK    9  A    between atoms: C_14  and  C_15
REMARK   10  A    between atoms: C_14  and  O_16
REMARK                            x       y       z     vdW  Elec       q    Type
REMARK                         _______ _______ _______ _____ _____    ______ ____
ROOT
ATOM      1  N   UNL     1      -4.131  13.981  -6.517  0.00  0.00    +0.000 N 
ENDROOT
BRANCH   1   6
ATOM      2  C   UNL     1      -2.664  14.997 -12.007  0.00  0.00    +0.000 C 
ATOM      3  C   UNL     1      -3.031  14.712 -10.583  0.00  0.00    +0.000 A 
ATOM      4  C   UNL     1      -4.189  14.008 -10.271  0.00  0.00    +0.000 A 
ATOM      5  C   UNL     1      -4.544  13.771  -8.933  0.00  0.00    +0.000 A 
ATOM      6  C   UNL     1      -3.781  14.239  -7.848  0.00  0.00    +0.000 A 
ATOM      7  C   UNL     1      -2.616  14.944  -8.201  0.00  0.00    +0.000 A 
ATOM      8  C   UNL     1      -2.248  15.187  -9.535  0.00  0.00    +0.000 A 
ENDBRANCH   1   6
BRANCH   1   9
ATOM      9  C   UNL     1      -5.066  12.877  -6.194  0.00  0.00    +0.000 C 
BRANCH   9  10
ATOM     10  C   UNL     1      -4.338  11.547  -5.880  0.00  0.00    +0.000 C 
ATOM     11  C   UNL     1      -5.119  10.356  -6.424  0.00  0.00    +0.000 C 
BRANCH  10  12
ATOM     12  O   UNL     1      -3.030  11.525  -6.466  0.00  0.00    +0.000 OA
ATOM     13  H   UNL     1      -2.640  12.409  -6.365  0.00  0.00    +0.000 HD
ENDBRANCH  10  12
ENDBRANCH   9  10
ENDBRANCH   1   9
BRANCH   1  14
ATOM     14  C   UNL     1      -4.030  15.037  -5.477  0.00  0.00    +0.000 C 
BRANCH  14  15
ATOM     15  C   UNL     1      -2.980  14.692  -4.394  0.00  0.00    +0.000 C 
ATOM     16  C   UNL     1      -3.599  14.164  -3.105  0.00  0.00    +0.000 C 
BRANCH  15  17
ATOM     17  O   UNL     1      -2.039  13.725  -4.860  0.00  0.00    +0.000 OA
ATOM     18  H   UNL     1      -1.205  13.941  -4.397  0.00  0.00    +0.000 HD
ENDBRANCH  15  17
ENDBRANCH  14  15
ENDBRANCH   1  14
TORSDOF 7
ENDMDL
MODEL 5
REMARK VINA RESULT:    -4.151      3.209      4.744
REMARK INTER + INTRA:          -6.039
REMARK INTER:                  -5.581
REMARK INTRA:                  -0.457
REMARK UNBOUND:                -0.432
REMARK  Name = 
REMARK  10 active torsions:
REMARK  status: ('A' for Active; 'I' for Inactive)
REMARK    1  A    between atoms: C_1  and  C_2
REMARK    2  A    between atoms: C_5  and  N_8
REMARK    3  A    between atoms: N_8  and  C_9
REMARK    4  A    between atoms: N_8  and  C_13
REMARK    5  A    between atoms: C_9  and  C_10
REMARK    6  A    between atoms: C_10  and  C_11
REMARK    7  A    between atoms: C_10  and  O_12
REMARK    8  A    between atoms: C_13  and  C_14
REMARK    9  A    between atoms: C_14  and  C_15
REMARK   10  A    between atoms: C_14  and  O_16
REMARK                            x       y       z     vdW  Elec       q    Type
REMARK                         _______ _______ _______ _____ _____    ______ ____
ROOT
ATOM      1  N   UNL     1      -2.668  15.237  -5.182  0.00  0.00    +0.000 N 
ENDROOT
BRANCH   1   6
ATOM      2  C   UNL     1       1.917  18.223  -7.023  0.00  0.00    +0.000 C 
ATOM      3  C   UNL     1       0.738  17.427  -6.554  0.00  0.00    +0.000 A 
ATOM      4  C   UNL     1      -0.381  17.264  -7.364  0.00  0.00    +0.000 A 
ATOM      5  C   UNL     1      -1.496  16.542  -6.908  0.00  0.00    +0.000 A 
ATOM      6  C   UNL     1      -1.560  15.972  -5.623  0.00  0.00    +0.000 A 
ATOM      7  C   UNL     1      -0.411  16.156  -4.833  0.00  0.00    +0.000 A 
ATOM      8  C   UNL     1       0.712  16.874  -5.278  0.00  0.00    +0.000 A 
ENDBRANCH   1   6
BRANCH   1   9
ATOM      9  C   UNL     1      -3.792  15.924  -4.502  0.00  0.00    +0.000 C 
BRANCH   9  10
ATOM     10  C   UNL     1      -3.571  16.072  -2.976  0.00  0.00    +0.000 C 
ATOM     11  C   UNL     1      -3.343  17.530  -2.597  0.00  0.00    +0.000 C 
BRANCH  10  12
ATOM     12  O   UNL     1      -4.708  15.595  -2.243  0.00  0.00    +0.000 OA
ATOM     13  H   UNL     1      -5.486  15.654  -2.821  0.00  0.00    +0.000 HD
ENDBRANCH  10  12
ENDBRANCH   9  10
ENDBRANCH   1   9
BRANCH   1  14
ATOM     14  C   UNL     1      -2.562  13.783  -4.900  0.00  0.00    +0.000 C 
BRANCH  14  15
ATOM     15  C   UNL     1      -3.408  12.935  -5.881  0.00  0.00    +0.000 C 
ATOM     16  C   UNL     1      -3.567  13.584  -7.251  0.00  0.00    +0.000 C 
BRANCH  15  17
ATOM     17  O   UNL     1      -2.850  11.636  -6.070  0.00  0.00    +0.000 OA
ATOM     18  H   UNL     1      -2.014  11.787  -6.555  0.00  0.00    +0.000 HD
ENDBRANCH  15  17
ENDBRANCH  14  15
ENDBRANCH   1  14
TORSDOF 7
ENDMDL
MODEL 6
REMARK VINA RESULT:    -4.040      6.170      9.117
REMARK INTER + INTRA:          -5.889
REMARK INTER:                  -5.349
REMARK INTRA:                  -0.540
REMARK UNBOUND:                -0.432
REMARK  Name = 
REMARK  10 active torsions:
REMARK  status: ('A' for Active; 'I' for Inactive)
REMARK    1  A    between atoms: C_1  and  C_2
REMARK    2  A    between atoms: C_5  and  N_8
REMARK    3  A    between atoms: N_8  and  C_9
REMARK    4  A    between atoms: N_8  and  C_13
REMARK    5  A    between atoms: C_9  and  C_10
REMARK    6  A    between atoms: C_10  and  C_11
REMARK    7  A    between atoms: C_10  and  O_12
REMARK    8  A    between atoms: C_13  and  C_14
REMARK    9  A    between atoms: C_14  and  C_15
REMARK   10  A    between atoms: C_14  and  O_16
REMARK                            x       y       z     vdW  Elec       q    Type
REMARK                         _______ _______ _______ _____ _____    ______ ____
ROOT
ATOM      1  N   UNL     1       0.285  17.945   0.324  0.00  0.00    +0.000 N 
ENDROOT
BRANCH   1   6
ATOM      2  C   UNL     1      -1.830  14.964   4.793  0.00  0.00    +0.000 C 
ATOM      3  C   UNL     1      -1.262  15.744   3.647  0.00  0.00    +0.000 A 
ATOM      4  C   UNL     1      -1.602  17.078   3.452  0.00  0.00    +0.000 A 
ATOM      5  C   UNL     1      -1.090  17.796   2.359  0.00  0.00    +0.000 A 
ATOM      6  C   UNL     1      -0.238  17.218   1.401  0.00  0.00    +0.000 A 
ATOM      7  C   UNL     1       0.087  15.868   1.631  0.00  0.00    +0.000 A 
ATOM      8  C   UNL     1      -0.417  15.139   2.721  0.00  0.00    +0.000 A 
ENDBRANCH   1   6
BRANCH   1   9
ATOM      9  C   UNL     1      -0.513  18.118  -0.913  0.00  0.00    +0.000 C 
BRANCH   9  10
ATOM     10  C   UNL     1      -0.766  16.783  -1.656  0.00  0.00    +0.000 C 
ATOM     11  C   UNL     1      -2.017  16.869  -2.522  0.00  0.00    +0.000 C 
BRANCH  10  12
ATOM     12  O   UNL     1       0.340  16.449  -2.506  0.00  0.00    +0.000 OA
ATOM     13  H   UNL     1       0.323  17.046  -3.272  0.00  0.00    +0.000 HD
ENDBRANCH  10  12
ENDBRANCH   9  10
ENDBRANCH   1   9
BRANCH   1  14
ATOM     14  C   UNL     1       1.751  18.116   0.151  0.00  0.00    +0.000 C 
BRANCH  14  15
ATOM     15  C   UNL     1       2.092  19.155  -0.943  0.00  0.00    +0.000 C 
ATOM     16  C   UNL     1       3.133  20.175  -0.497  0.00  0.00    +0.000 C 
BRANCH  15  17
ATOM     17  O   UNL     1       2.569  18.530  -2.134  0.00  0.00    +0.000 OA
ATOM     18  H   UNL     1       2.732  17.598  -1.882  0.00  0.00    +0.000 HD
ENDBRANCH  15  17
ENDBRANCH  14  15
ENDBRANCH   1  14
TORSDOF 7
ENDMDL
MODEL 7
REMARK VINA RESULT:    -4.033      9.252     11.594
REMARK INTER + INTRA:          -5.880
REMARK INTER:                  -5.286
REMARK INTRA:                  -0.594
REMARK UNBOUND:                -0.432
REMARK  Name = 
REMARK  10 active torsions:
REMARK  status: ('A' for Active; 'I' for Inactive)
REMARK    1  A    between atoms: C_1  and  C_2
REMARK    2  A    between atoms: C_5  and  N_8
REMARK    3  A    between atoms: N_8  and  C_9
REMARK    4  A    between atoms: N_8  and  C_13
REMARK    5  A    between atoms: C_9  and  C_10
REMARK    6  A    between atoms: C_10  and  C_11
REMARK    7  A    between atoms: C_10  and  O_12
REMARK    8  A    between atoms: C_13  and  C_14
REMARK    9  A    between atoms: C_14  and  C_15
REMARK   10  A    between atoms: C_14  and  O_16
REMARK                            x       y       z     vdW  Elec       q    Type
REMARK                         _______ _______ _______ _____ _____    ______ ____
ROOT
ATOM      1  N   UNL     1      -1.559  15.921   4.617  0.00  0.00    +0.000 N 
ENDROOT
BRANCH   1   6
ATOM      2  C   UNL     1       0.326  17.102  -0.710  0.00  0.00    +0.000 C 
ATOM      3  C   UNL     1      -0.141  16.804   0.682  0.00  0.00    +0.000 A 
ATOM      4  C   UNL     1       0.062  15.551   1.251  0.00  0.00    +0.000 A 
ATOM      5  C   UNL     1      -0.405  15.268   2.545  0.00  0.00    +0.000 A 
ATOM      6  C   UNL     1      -1.113  16.204   3.320  0.00  0.00    +0.000 A 
ATOM      7  C   UNL     1      -1.299  17.460   2.714  0.00  0.00    +0.000 A 
ATOM      8  C   UNL     1      -0.835  17.757   1.422  0.00  0.00    +0.000 A 
ENDBRANCH   1   6
BRANCH   1   9
ATOM      9  C   UNL     1      -0.609  15.415   5.636  0.00  0.00    +0.000 C 
BRANCH   9  10
ATOM     10  C   UNL     1      -0.304  16.456   6.741  0.00  0.00    +0.000 C 
ATOM     11  C   UNL     1       1.172  16.431   7.122  0.00  0.00    +0.000 C 
BRANCH  10  12
ATOM     12  O   UNL     1      -0.626  17.783   6.302  0.00  0.00    +0.000 OA
ATOM     13  H   UNL     1      -1.176  18.202   6.985  0.00  0.00    +0.000 HD
ENDBRANCH  10  12
ENDBRANCH   9  10
ENDBRANCH   1   9
BRANCH   1  14
ATOM     14  C   UNL     1      -2.987  15.617   4.890  0.00  0.00    +0.000 C 
BRANCH  14  15
ATOM     15  C   UNL     1      -3.784  16.876   5.307  0.00  0.00    +0.000 C 
ATOM     16  C   UNL     1      -5.240  16.841   4.858  0.00  0.00    +0.000 C 
BRANCH  15  17
ATOM     17  O   UNL     1      -3.762  17.070   6.721  0.00  0.00    +0.000 OA
ATOM     18  H   UNL     1      -2.885  16.743   7.007  0.00  0.00    +0.000 HD
ENDBRANCH  15  17
ENDBRANCH  14  15
ENDBRANCH   1  14
TORSDOF 7
ENDMDL
MODEL 8
REMARK VINA RESULT:    -3.977      2.418      4.731
REMARK INTER + INTRA:          -5.804
REMARK INTER:                  -5.240
REMARK INTRA:                  -0.564
REMARK UNBOUND:                -0.432
REMARK  Name = 
REMARK  10 active torsions:
REMARK  status: ('A' for Active; 'I' for Inactive)
REMARK    1  A    between atoms: C_1  and  C_2
REMARK    2  A    between atoms: C_5  and  N_8
REMARK    3  A    between atoms: N_8  and  C_9
REMARK    4  A    between atoms: N_8  and  C_13
REMARK    5  A    between atoms: C_9  and  C_10
REMARK    6  A    between atoms: C_10  and  C_11
REMARK    7  A    between atoms: C_10  and  O_12
REMARK    8  A    between atoms: C_13  and  C_14
REMARK    9  A    between atoms: C_14  and  C_15
REMARK   10  A    between atoms: C_14  and  O_16
REMARK                            x       y       z     vdW  Elec       q    Type
REMARK                         _______ _______ _______ _____ _____    ______ ____
ROOT
ATOM      1  N   UNL     1      -3.549  14.503  -5.704  0.00  0.00    +0.000 N 
ENDROOT
BRANCH   1   6
ATOM      2  C   UNL     1      -0.930  16.689 -10.361  0.00  0.00    +0.000 C 
ATOM      3  C   UNL     1      -1.629  16.138  -9.156  0.00  0.00    +0.000 A 
ATOM      4  C   UNL     1      -1.392  16.663  -7.890  0.00  0.00    +0.000 A 
ATOM      5  C   UNL     1      -2.027  16.122  -6.760  0.00  0.00    +0.000 A 
ATOM      6  C   UNL     1      -2.904  15.025  -6.832  0.00  0.00    +0.000 A 
ATOM      7  C   UNL     1      -3.121  14.521  -8.128  0.00  0.00    +0.000 A 
ATOM      8  C   UNL     1      -2.494  15.054  -9.266  0.00  0.00    +0.000 A 
ENDBRANCH   1   6
BRANCH   1   9
ATOM      9  C   UNL     1      -4.044  15.413  -4.643  0.00  0.00    +0.000 C 
BRANCH   9  10
ATOM     10  C   UNL     1      -3.570  14.999  -3.228  0.00  0.00    +0.000 C 
ATOM     11  C   UNL     1      -2.275  15.713  -2.857  0.00  0.00    +0.000 C 
BRANCH  10  12
ATOM     12  O   UNL     1      -4.556  15.325  -2.239  0.00  0.00    +0.000 OA
ATOM     13  H   UNL     1      -5.037  14.511  -2.014  0.00  0.00    +0.000 HD
ENDBRANCH  10  12
ENDBRANCH   9  10
ENDBRANCH   1   9
BRANCH   1  14
ATOM     14  C   UNL     1      -3.322  13.101  -5.268  0.00  0.00    +0.000 C 
BRANCH  14  15
ATOM     15  C   UNL     1      -4.486  12.167  -5.676  0.00  0.00    +0.000 C 
ATOM     16  C   UNL     1      -4.106  11.178  -6.772  0.00  0.00    +0.000 C 
BRANCH  15  17
ATOM     17  O   UNL     1      -4.981  11.424  -4.563  0.00  0.00    +0.000 OA
ATOM     18  H   UNL     1      -5.530  12.058  -4.060  0.00  0.00    +0.000 HD
ENDBRANCH  15  17
ENDBRANCH  14  15
ENDBRANCH   1  14
TORSDOF 7
ENDMDL
