MODEL 1
REMARK VINA RESULT:    -4.620      0.000      0.000
REMARK INTER + INTRA:          -6.593
REMARK INTER:                  -6.240
REMARK INTRA:                  -0.352
REMARK UNBOUND:                -0.352
REMARK  Name = 
REMARK  10 active torsions:
REMARK  status: ('A' for Active; 'I' for Inactive)
REMARK    1  A    between atoms: C_1  and  C_2
REMARK    2  A    between atoms: C_5  and  N_8
REMARK    3  A    between atoms: N_8  and  C_9
REMARK    4  A    between atoms: N_8  and  C_13
REMARK    5  A    between atoms: C_9  and  C_10
REMARK    6  A    between atoms: C_10  and  C_11
REMARK    7  A    between atoms: C_10  and  O_12
REMARK    8  A    between atoms: C_13  and  C_14
REMARK    9  A    between atoms: C_14  and  C_15
REMARK   10  A    between atoms: C_14  and  O_16
REMARK                            x       y       z     vdW  Elec       q    Type
REMARK                         _______ _______ _______ _____ _____    ______ ____
ROOT
ATOM      1  N   UNL     1      -4.029  12.970  -6.208  0.00  0.00    +0.000 N 
ENDROOT
BRANCH   1   6
ATOM      2  C   UNL     1      -1.862  16.120  -1.883  0.00  0.00    +0.000 C 
ATOM      3  C   UNL     1      -2.437  15.323  -3.013  0.00  0.00    +0.000 A 
ATOM      4  C   UNL     1      -3.613  14.598  -2.850  0.00  0.00    +0.000 A 
ATOM      5  C   UNL     1      -4.131  13.828  -3.904  0.00  0.00    +0.000 A 
ATOM      6  C   UNL     1      -3.496  13.724  -5.155  0.00  0.00    +0.000 A 
ATOM      7  C   UNL     1      -2.311  14.471  -5.285  0.00  0.00    +0.000 A 
ATOM      8  C   UNL     1      -1.783  15.247  -4.239  0.00  0.00    +0.000 A 
ENDBRANCH   1   6
BRANCH   1   9
ATOM      9  C   UNL     1      -5.240  13.441  -6.922  0.00  0.00    +0.000 C 
BRANCH   9  10
ATOM     10  C   UNL     1      -5.000  13.653  -8.436  0.00  0.00    +0.000 C 
ATOM     11  C   UNL     1      -3.719  14.442  -8.680  0.00  0.00    +0.000 C 
BRANCH  10  12
ATOM     12  O   UNL     1      -4.884  12.397  -9.120  0.00  0.00    +0.000 OA
ATOM     13  H   UNL     1      -5.775  12.119  -9.391  0.00  0.00    +0.000 HD
ENDBRANCH  10  12
ENDBRANCH   9  10
ENDBRANCH   1   9
BRANCH   1  14
ATOM     14  C   UNL     1      -3.767  11.512  -6.319  0.00  0.00    +0.000 C 
BRANCH  14  15
ATOM     15  C   UNL     1      -5.004  10.665  -5.937  0.00  0.00    +0.000 C 
ATOM     16  C   UNL     1      -4.896   9.211  -6.381  0.00  0.00    +0.000 C 
BRANCH  15  17
ATOM     17  O   UNL     1      -5.240  10.680  -4.530  0.00  0.00    +0.000 OA
ATOM     18  H   UNL     1      -4.370  10.487  -4.126  0.00  0.00    +0.000 HD
ENDBRANCH  15  17
ENDBRANCH  14  15
ENDBRANCH   1  14
TORSDOF 7
ENDMDL
MODEL 2
REMARK VINA RESULT:    -4.523      2.787      4.299
REMARK INTER + INTRA:          -6.462
REMARK INTER:                  -5.979
REMARK INTRA:                  -0.484
REMARK UNBOUND:                -0.352
REMARK  Name = 
REMARK  10 active torsions:
REMARK  status: ('A' for Active; 'I' for Inactive)
REMARK    1  A    between atoms: C_1  and  C_2
REMARK    2  A    between atoms: C_5  and  N_8
REMARK    3  A    between atoms: N_8  and  C_9
REMARK    4  A    between atoms: N_8  and  C_13
REMARK    5  A    between atoms: C_9  and  C_10
REMARK    6  A    between atoms: C_10  and  C_11
REMARK    7  A    between atoms: C_10  and  O_12
REMARK    8  A    between atoms: C_13  and  C_14
REMARK    9  A    between atoms: C_14  and  C_15
REMARK   10  A    between atoms: C_14  and  O_16
REMARK                            x       y       z     vdW  Elec       q    Type
REMARK                         _______ _______ _______ _____ _____    ______ ____
ROOT
ATOM      1  N   UNL     1      -3.319  15.213  -5.353  0.00  0.00    +0.000 N 
ENDROOT
BRANCH   1   6
ATOM      2  C   UNL     1       1.789  17.565  -6.662  0.00  0.00    +0.000 C 
ATOM      3  C   UNL     1       0.455  16.977  -6.315  0.00  0.00    +0.000 A 
ATOM      4  C   UNL     1       0.218  16.437  -5.056  0.00  0.00    +0.000 A 
ATOM      5  C   UNL     1      -1.024  15.860  -4.746  0.00  0.00    +0.000 A 
ATOM      6  C   UNL     1      -2.076  15.772  -5.675  0.00  0.00    +0.000 A 
ATOM      7  C   UNL     1      -1.802  16.331  -6.938  0.00  0.00    +0.000 A 
ATOM      8  C   UNL     1      -0.565  16.912  -7.260  0.00  0.00    +0.000 A 
ENDBRANCH   1   6
BRANCH   1   9
ATOM      9  C   UNL     1      -3.929  14.195  -6.242  0.00  0.00    +0.000 C 
BRANCH   9  10
ATOM     10  C   UNL     1      -3.570  12.747  -5.831  0.00  0.00    +0.000 C 
ATOM     11  C   UNL     1      -4.815  11.974  -5.413  0.00  0.00    +0.000 C 
BRANCH  10  12
ATOM     12  O   UNL     1      -2.952  12.041  -6.916  0.00  0.00    +0.000 OA
ATOM     13  H   UNL     1      -3.370  12.335  -7.743  0.00  0.00    +0.000 HD
ENDBRANCH  10  12
ENDBRANCH   9  10
ENDBRANCH   1   9
BRANCH   1  14
ATOM     14  C   UNL     1      -4.278  15.927  -4.471  0.00  0.00    +0.000 C 
BRANCH  14  15
ATOM     15  C   UNL     1      -4.632  15.106  -3.208  0.00  0.00    +0.000 C 
ATOM     16  C   UNL     1      -3.438  14.364  -2.621  0.00  0.00    +0.000 C 
BRANCH  15  17
ATOM     17  O   UNL     1      -5.189  15.928  -2.184  0.00  0.00    +0.000 OA
ATOM     18  H   UNL     1      -5.325  15.328  -1.424  0.00  0.00    +0.000 HD
ENDBRANCH  15  17
ENDBRANCH  14  15
ENDBRANCH   1  14
TORSDOF 7
ENDMDL
MODEL 3
REMARK VINA RESULT:    -4.491      0.783      3.441
REMARK INTER + INTRA:          -6.419
REMARK INTER:                  -5.954
REMARK INTRA:                  -0.464
REMARK UNBOUND:                -0.352
REMARK  Name = 
REMARK  10 active torsions:
REMARK  status: ('A' for Active; 'I' for Inactive)
REMARK    1  A    between atoms: C_1  and  C_2
REMARK    2  A    between atoms: C_5  and  N_8
REMARK    3  A    between atoms: N_8  and  C_9
REMARK    4  A    between atoms: N_8  and  C_13
REMARK    5  A    between atoms: C_9  and  C_10
REMARK    6  A    between atoms: C_10  and  C_11
REMARK    7  A    between atoms: C_10  and  O_12
REMARK    8  A    between atoms: C_13  and  C_14
REMARK    9  A    between atoms: C_14  and  C_15
REMARK   10  A    between atoms: C_14  and  O_16
REMARK                            x       y       z     vdW  Elec       q    Type
REMARK                         _______ _______ _______ _____ _____    ______ ____
ROOT
ATOM      1  N   UNL     1      -4.403  13.139  -6.190  0.00  0.00    +0.000 N 
ENDROOT
BRANCH   1   6
ATOM      2  C   UNL     1      -1.865  16.174  -1.986  0.00  0.00    +0.000 C 
ATOM      3  C   UNL     1      -2.510  15.366  -3.070  0.00  0.00    +0.000 A 
ATOM      4  C   UNL     1      -1.961  15.315  -4.347  0.00  0.00    +0.000 A 
ATOM      5  C   UNL     1      -2.587  14.580  -5.367  0.00  0.00    +0.000 A 
ATOM      6  C   UNL     1      -3.794  13.885  -5.173  0.00  0.00    +0.000 A 
ATOM      7  C   UNL     1      -4.320  13.958  -3.870  0.00  0.00    +0.000 A 
ATOM      8  C   UNL     1      -3.703  14.687  -2.841  0.00  0.00    +0.000 A 
ENDBRANCH   1   6
BRANCH   1   9
ATOM      9  C   UNL     1      -4.037  11.716  -6.389  0.00  0.00    +0.000 C 
BRANCH   9  10
ATOM     10  C   UNL     1      -5.144  10.740  -5.921  0.00  0.00    +0.000 C 
ATOM     11  C   UNL     1      -4.857   9.321  -6.396  0.00  0.00    +0.000 C 
BRANCH  10  12
ATOM     12  O   UNL     1      -5.240  10.718  -4.490  0.00  0.00    +0.000 OA
ATOM     13  H   UNL     1      -4.647  10.024  -4.159  0.00  0.00    +0.000 HD
ENDBRANCH  10  12
ENDBRANCH   9  10
ENDBRANCH   1   9
BRANCH   1  14
ATOM     14  C   UNL     1      -5.001  13.801  -7.378  0.00  0.00    +0.000 C 
BRANCH  14  15
ATOM     15  C   UNL     1      -4.336  13.344  -8.698  0.00  0.00    +0.000 C 
ATOM     16  C   UNL     1      -5.240  13.508  -9.914  0.00  0.00    +0.000 C 
BRANCH  15  17
ATOM     17  O   UNL     1      -3.123  14.052  -8.951  0.00  0.00    +0.000 OA
ATOM     18  H   UNL     1      -3.298  14.967  -8.653  0.00  0.00    +0.000 HD
ENDBRANCH  15  17
ENDBRANCH  14  15
ENDBRANCH   1  14
TORSDOF 7
ENDMDL
MODEL 4
REMARK VINA RESULT:    -4.267      1.983      5.222
REMARK INTER + INTRA:          -6.116
REMARK INTER:                  -5.508
REMARK INTRA:                  -0.607
REMARK UNBOUND:                -0.352
REMARK  Name = 
REMARK  10 active torsions:
REMARK  status: ('A' for Active; 'I' for Inactive)
REMARK    1  A    between atoms: C_1  and  C_2
REMARK    2  A    between atoms: C_5  and  N_8
REMARK    3  A    between atoms: N_8  and  C_9
REMARK    4  A    between atoms: N_8  and  C_13
REMARK    5  A    between atoms: C_9  and  C_10
REMARK    6  A    between atoms: C_10  and  C_11
REMARK    7  A    between atoms: C_10  and  O_12
REMARK    8  A    between atoms: C_13  and  C_14
REMARK    9  A    between atoms: C_14  and  C_15
REMARK   10  A    between atoms: C_14  and  O_16
REMARK                            x       y       z     vdW  Elec       q    Type
REMARK                         _______ _______ _______ _____ _____    ______ ____
ROOT
ATOM      1  N   UNL     1      -4.047  14.050  -6.449  0.00  0.00    +0.000 N 
ENDROOT
BRANCH   1   6
ATOM      2  C   UNL     1      -2.567  15.221 -11.905  0.00  0.00    +0.000 C 
ATOM      3  C   UNL     1      -2.965  14.938 -10.489  0.00  0.00    +0.000 A 
ATOM      4  C   UNL     1      -2.200  15.403  -9.425  0.00  0.00    +0.000 A 
ATOM      5  C   UNL     1      -2.561  15.109  -8.100  0.00  0.00    +0.000 A 
ATOM      6  C   UNL     1      -3.681  14.323  -7.773  0.00  0.00    +0.000 A 
ATOM      7  C   UNL     1      -4.433  13.871  -8.874  0.00  0.00    +0.000 A 
ATOM      8  C   UNL     1      -4.084  14.160 -10.203  0.00  0.00    +0.000 A 
ENDBRANCH   1   6
BRANCH   1   9
ATOM      9  C   UNL     1      -4.992  12.946  -6.151  0.00  0.00    +0.000 C 
BRANCH   9  10
ATOM     10  C   UNL     1      -4.275  11.602  -5.872  0.00  0.00    +0.000 C 
ATOM     11  C   UNL     1      -5.073  10.432  -6.437  0.00  0.00    +0.000 C 
BRANCH  10  12
ATOM     12  O   UNL     1      -2.971  11.580  -6.469  0.00  0.00    +0.000 OA
ATOM     13  H   UNL     1      -2.324  11.381  -5.772  0.00  0.00    +0.000 HD
ENDBRANCH  10  12
ENDBRANCH   9  10
ENDBRANCH   1   9
BRANCH   1  14
ATOM     14  C   UNL     1      -3.951  15.091  -5.394  0.00  0.00    +0.000 C 
BRANCH  14  15
ATOM     15  C   UNL     1      -2.896  14.738  -4.319  0.00  0.00    +0.000 C 
ATOM     16  C   UNL     1      -3.510  14.209  -3.028  0.00  0.00    +0.000 C 
BRANCH  15  17
ATOM     17  O   UNL     1      -1.962  13.770  -4.794  0.00  0.00    +0.000 OA
ATOM     18  H   UNL     1      -2.461  12.928  -4.815  0.00  0.00    +0.000 HD
ENDBRANCH  15  17
ENDBRANCH  14  15
ENDBRANCH   1  14
TORSDOF 7
ENDMDL
MODEL 5
REMARK VINA RESULT:    -4.232      2.154      4.211
REMARK INTER + INTRA:          -6.068
REMARK INTER:                  -5.382
REMARK INTRA:                  -0.686
REMARK UNBOUND:                -0.352
REMARK  Name = 
REMARK  10 active torsions:
REMARK  status: ('A' for Active; 'I' for Inactive)
REMARK    1  A    between atoms: C_1  and  C_2
REMARK    2  A    between atoms: C_5  and  N_8
REMARK    3  A    between atoms: N_8  and  C_9
REMARK    4  A    between atoms: N_8  and  C_13
REMARK    5  A    between atoms: C_9  and  C_10
REMARK    6  A    between atoms: C_10  and  C_11
REMARK    7  A    between atoms: C_10  and  O_12
REMARK    8  A    between atoms: C_13  and  C_14
REMARK    9  A    between atoms: C_14  and  C_15
REMARK   10  A    between atoms: C_14  and  O_16
REMARK                            x       y       z     vdW  Elec       q    Type
REMARK                         _______ _______ _______ _____ _____    ______ ____
ROOT
ATOM      1  N   UNL     1      -4.783  13.675  -6.040  0.00  0.00    +0.000 N 
ENDROOT
BRANCH   1   6
ATOM      2  C   UNL     1      -3.232  18.006  -9.528  0.00  0.00    +0.000 C 
ATOM      3  C   UNL     1      -3.653  16.876  -8.639  0.00  0.00    +0.000 A 
ATOM      4  C   UNL     1      -4.563  17.080  -7.607  0.00  0.00    +0.000 A 
ATOM      5  C   UNL     1      -4.931  16.024  -6.758  0.00  0.00    +0.000 A 
ATOM      6  C   UNL     1      -4.397  14.728  -6.878  0.00  0.00    +0.000 A 
ATOM      7  C   UNL     1      -3.481  14.558  -7.933  0.00  0.00    +0.000 A 
ATOM      8  C   UNL     1      -3.106  15.605  -8.791  0.00  0.00    +0.000 A 
ENDBRANCH   1   6
BRANCH   1   9
ATOM      9  C   UNL     1      -4.368  13.667  -4.617  0.00  0.00    +0.000 C 
BRANCH   9  10
ATOM     10  C   UNL     1      -2.990  14.337  -4.390  0.00  0.00    +0.000 C 
ATOM     11  C   UNL     1      -2.809  14.730  -2.928  0.00  0.00    +0.000 C 
BRANCH  10  12
ATOM     12  O   UNL     1      -1.921  13.449  -4.746  0.00  0.00    +0.000 OA
ATOM     13  H   UNL     1      -1.311  13.930  -5.329  0.00  0.00    +0.000 HD
ENDBRANCH  10  12
ENDBRANCH   9  10
ENDBRANCH   1   9
BRANCH   1  14
ATOM     14  C   UNL     1      -5.141  12.344  -6.593  0.00  0.00    +0.000 C 
BRANCH  14  15
ATOM     15  C   UNL     1      -4.224  11.220  -6.052  0.00  0.00    +0.000 C 
ATOM     16  C   UNL     1      -4.762   9.822  -6.330  0.00  0.00    +0.000 C 
BRANCH  15  17
ATOM     17  O   UNL     1      -2.909  11.304  -6.600  0.00  0.00    +0.000 OA
ATOM     18  H   UNL     1      -2.964  10.844  -7.461  0.00  0.00    +0.000 HD
ENDBRANCH  15  17
ENDBRANCH  14  15
ENDBRANCH   1  14
TORSDOF 7
ENDMDL
MODEL 6
REMARK VINA RESULT:    -4.217      2.921      4.713
REMARK INTER + INTRA:          -6.048
REMARK INTER:                  -5.554
REMARK INTRA:                  -0.494
REMARK UNBOUND:                -0.352
REMARK  Name = 
REMARK  10 active torsions:
REMARK  status: ('A' for Active; 'I' for Inactive)
REMARK    1  A    between atoms: C_1  and  C_2
REMARK    2  A    between atoms: C_5  and  N_8
REMARK    3  A    between atoms: N_8  and  C_9
REMARK    4  A    between atoms: N_8  and  C_13
REMARK    5  A    between atoms: C_9  and  C_10
REMARK    6  A    between atoms: C_10  and  C_11
REMARK    7  A    between atoms: C_10  and  O_12
REMARK    8  A    between atoms: C_13  and  C_14
REMARK    9  A    between atoms: C_14  and  C_15
REMARK   10  A    between atoms: C_14  and  O_16
REMARK                            x       y       z     vdW  Elec       q    Type
REMARK                         _______ _______ _______ _____ _____    ______ ____
ROOT
ATOM      1  N   UNL     1      -2.468  15.186  -4.955  0.00  0.00    +0.000 N 
ENDROOT
BRANCH   1   6
ATOM      2  C   UNL     1       1.892  18.237  -7.193  0.00  0.00    +0.000 C 
ATOM      3  C   UNL     1       0.750  17.467  -6.604  0.00  0.00    +0.000 A 
ATOM      4  C   UNL     1       0.821  16.962  -5.310  0.00  0.00    +0.000 A 
ATOM      5  C   UNL     1      -0.240  16.215  -4.774  0.00  0.00    +0.000 A 
ATOM      6  C   UNL     1      -1.405  15.915  -5.503  0.00  0.00    +0.000 A 
ATOM      7  C   UNL     1      -1.444  16.443  -6.806  0.00  0.00    +0.000 A 
ATOM      8  C   UNL     1      -0.390  17.194  -7.354  0.00  0.00    +0.000 A 
ENDBRANCH   1   6
BRANCH   1   9
ATOM      9  C   UNL     1      -2.384  14.683  -3.562  0.00  0.00    +0.000 C 
BRANCH   9  10
ATOM     10  C   UNL     1      -3.370  15.398  -2.606  0.00  0.00    +0.000 C 
ATOM     11  C   UNL     1      -3.492  16.876  -2.954  0.00  0.00    +0.000 C 
BRANCH  10  12
ATOM     12  O   UNL     1      -4.678  14.814  -2.684  0.00  0.00    +0.000 OA
ATOM     13  H   UNL     1      -4.623  13.905  -2.345  0.00  0.00    +0.000 HD
ENDBRANCH  10  12
ENDBRANCH   9  10
ENDBRANCH   1   9
BRANCH   1  14
ATOM     14  C   UNL     1      -3.433  14.464  -5.823  0.00  0.00    +0.000 C 
BRANCH  14  15
ATOM     15  C   UNL     1      -3.414  12.936  -5.574  0.00  0.00    +0.000 C 
ATOM     16  C   UNL     1      -4.791  12.361  -5.267  0.00  0.00    +0.000 C 
BRANCH  15  17
ATOM     17  O   UNL     1      -2.877  12.227  -6.689  0.00  0.00    +0.000 OA
ATOM     18  H   UNL     1      -3.441  12.483  -7.447  0.00  0.00    +0.000 HD
ENDBRANCH  15  17
ENDBRANCH  14  15
ENDBRANCH   1  14
TORSDOF 7
ENDMDL
MODEL 7
REMARK VINA RESULT:    -4.172      3.083      5.766
REMARK INTER + INTRA:          -5.988
REMARK INTER:                  -5.454
REMARK INTRA:                  -0.534
REMARK UNBOUND:                -0.352
REMARK  Name = 
REMARK  10 active torsions:
REMARK  status: ('A' for Active; 'I' for Inactive)
REMARK    1  A    between atoms: C_1  and  C_2
REMARK    2  A    between atoms: C_5  and  N_8
REMARK    3  A    between atoms: N_8  and  C_9
REMARK    4  A    between atoms: N_8  and  C_13
REMARK    5  A    between atoms: C_9  and  C_10
REMARK    6  A    between atoms: C_10  and  C_11
REMARK    7  A    between atoms: C_10  and  O_12
REMARK    8  A    between atoms: C_13  and  C_14
REMARK    9  A    between atoms: C_14  and  C_15
REMARK   10  A    between atoms: C_14  and  O_16
REMARK                            x       y       z     vdW  Elec       q    Type
REMARK                         _______ _______ _______ _____ _____    ______ ____
ROOT
ATOM      1  N   UNL     1      -3.298  15.499  -4.570  0.00  0.00    +0.000 N 
ENDROOT
BRANCH   1   6
ATOM      2  C   UNL     1      -5.057  10.287  -6.323  0.00  0.00    +0.000 C 
ATOM      3  C   UNL     1      -4.584  11.628  -5.853  0.00  0.00    +0.000 A 
ATOM      4  C   UNL     1      -5.222  12.283  -4.804  0.00  0.00    +0.000 A 
ATOM      5  C   UNL     1      -4.794  13.554  -4.387  0.00  0.00    +0.000 A 
ATOM      6  C   UNL     1      -3.732  14.240  -5.004  0.00  0.00    +0.000 A 
ATOM      7  C   UNL     1      -3.110  13.548  -6.059  0.00  0.00    +0.000 A 
ATOM      8  C   UNL     1      -3.527  12.276  -6.485  0.00  0.00    +0.000 A 
ENDBRANCH   1   6
BRANCH   1   9
ATOM      9  C   UNL     1      -4.209  16.372  -3.792  0.00  0.00    +0.000 C 
BRANCH   9  10
ATOM     10  C   UNL     1      -3.456  17.456  -2.983  0.00  0.00    +0.000 C 
ATOM     11  C   UNL     1      -4.416  18.530  -2.484  0.00  0.00    +0.000 C 
BRANCH  10  12
ATOM     12  O   UNL     1      -2.798  16.884  -1.844  0.00  0.00    +0.000 OA
ATOM     13  H   UNL     1      -3.223  17.234  -1.044  0.00  0.00    +0.000 HD
ENDBRANCH  10  12
ENDBRANCH   9  10
ENDBRANCH   1   9
BRANCH   1  14
ATOM     14  C   UNL     1      -2.189  16.208  -5.258  0.00  0.00    +0.000 C 
BRANCH  14  15
ATOM     15  C   UNL     1      -0.801  15.782  -4.722  0.00  0.00    +0.000 C 
ATOM     16  C   UNL     1       0.245  16.886  -4.822  0.00  0.00    +0.000 C 
BRANCH  15  17
ATOM     17  O   UNL     1      -0.869  15.361  -3.360  0.00  0.00    +0.000 OA
ATOM     18  H   UNL     1       0.043  15.459  -3.020  0.00  0.00    +0.000 HD
ENDBRANCH  15  17
ENDBRANCH  14  15
ENDBRANCH   1  14
TORSDOF 7
ENDMDL
MODEL 8
REMARK VINA RESULT:    -4.149      9.246     12.082
REMARK INTER + INTRA:          -5.956
REMARK INTER:                  -5.527
REMARK INTRA:                  -0.429
REMARK UNBOUND:                -0.352
REMARK  Name = 
REMARK  10 active torsions:
REMARK  status: ('A' for Active; 'I' for Inactive)
REMARK    1  A    between atoms: C_1  and  C_2
REMARK    2  A    between atoms: C_5  and  N_8
REMARK    3  A    between atoms: N_8  and  C_9
REMARK    4  A    between atoms: N_8  and  C_13
REMARK    5  A    between atoms: C_9  and  C_10
REMARK    6  A    between atoms: C_10  and  C_11
REMARK    7  A    between atoms: C_10  and  O_12
REMARK    8  A    between atoms: C_13  and  C_14
REMARK    9  A    between atoms: C_14  and  C_15
REMARK   10  A    between atoms: C_14  and  O_16
REMARK                            x       y       z     vdW  Elec       q    Type
REMARK                         _______ _______ _______ _____ _____    ______ ____
ROOT
ATOM      1  N   UNL     1      -1.386  16.773   4.908  0.00  0.00    +0.000 N 
ENDROOT
BRANCH   1   6
ATOM      2  C   UNL     1       3.534  17.297   7.882  0.00  0.00    +0.000 C 
ATOM      3  C   UNL     1       2.270  17.150   7.092  0.00  0.00    +0.000 A 
ATOM      4  C   UNL     1       1.841  18.159   6.236  0.00  0.00    +0.000 A 
ATOM      5  C   UNL     1       0.640  18.028   5.520  0.00  0.00    +0.000 A 
ATOM      6  C   UNL     1      -0.199  16.905   5.639  0.00  0.00    +0.000 A 
ATOM      7  C   UNL     1       0.267  15.905   6.512  0.00  0.00    +0.000 A 
ATOM      8  C   UNL     1       1.467  16.022   7.232  0.00  0.00    +0.000 A 
ENDBRANCH   1   6
BRANCH   1   9
ATOM      9  C   UNL     1      -1.447  15.847   3.751  0.00  0.00    +0.000 C 
BRANCH   9  10
ATOM     10  C   UNL     1      -0.569  16.311   2.564  0.00  0.00    +0.000 C 
ATOM     11  C   UNL     1      -0.006  15.117   1.802  0.00  0.00    +0.000 C 
BRANCH  10  12
ATOM     12  O   UNL     1      -1.327  17.108   1.643  0.00  0.00    +0.000 OA
ATOM     13  H   UNL     1      -1.351  18.018   1.981  0.00  0.00    +0.000 HD
ENDBRANCH  10  12
ENDBRANCH   9  10
ENDBRANCH   1   9
BRANCH   1  14
ATOM     14  C   UNL     1      -2.408  17.851   4.899  0.00  0.00    +0.000 C 
BRANCH  14  15
ATOM     15  C   UNL     1      -3.679  17.457   5.691  0.00  0.00    +0.000 C 
ATOM     16  C   UNL     1      -4.805  16.946   4.801  0.00  0.00    +0.000 C 
BRANCH  15  17
ATOM     17  O   UNL     1      -3.401  16.458   6.670  0.00  0.00    +0.000 OA
ATOM     18  H   UNL     1      -4.064  15.757   6.511  0.00  0.00    +0.000 HD
ENDBRANCH  15  17
ENDBRANCH  14  15
ENDBRANCH   1  14
TORSDOF 7
ENDMDL
