MODEL 1
REMARK VINA RESULT:    -3.682      0.000      0.000
REMARK INTER + INTRA:          -4.043
REMARK INTER:                  -4.005
REMARK INTRA:                  -0.038
REMARK UNBOUND:                -0.038
REMARK  Name = 
REMARK  3 active torsions:
REMARK  status: ('A' for Active; 'I' for Inactive)
REMARK    1  A    between atoms: C_1  and  O_2
REMARK    2  A    between atoms: O_2  and  C_3
REMARK    3  A    between atoms: C_8  and  O_9
REMARK                            x       y       z     vdW  Elec       q    Type
REMARK                         _______ _______ _______ _____ _____    ______ ____
ROOT
ATOM      1  C   UNL     1      -4.919  11.396  -6.233  0.00  0.00    +0.000 A 
ATOM      2  C   UNL     1      -5.171  11.805  -4.924  0.00  0.00    +0.000 A 
ATOM      3  C   UNL     1      -5.240  13.170  -4.619  0.00  0.00    +0.000 A 
ATOM      4  C   UNL     1      -5.057  14.129  -5.618  0.00  0.00    +0.000 A 
ATOM      5  C   UNL     1      -4.805  13.727  -6.928  0.00  0.00    +0.000 A 
ATOM      6  C   UNL     1      -4.738  12.371  -7.221  0.00  0.00    +0.000 A 
ENDROOT
BRANCH   1   8
ATOM      7  C   UNL     1      -5.225   9.087  -5.758  0.00  0.00    +0.000 C 
ATOM      8  O   UNL     1      -4.824  10.100  -6.673  0.00  0.00    +0.000 OA
ENDBRANCH   1   8
BRANCH   6   9
ATOM      9  O   UNL     1      -4.489  12.001  -8.516  0.00  0.00    +0.000 OA
ATOM     10  H   UNL     1      -4.369  11.033  -8.479  0.00  0.00    +0.000 HD
ENDBRANCH   6   9
TORSDOF 2
ENDMDL
MODEL 2
REMARK VINA RESULT:    -3.547      1.720      1.824
REMARK INTER + INTRA:          -3.896
REMARK INTER:                  -3.855
REMARK INTRA:                  -0.040
REMARK UNBOUND:                -0.038
REMARK  Name = 
REMARK  3 active torsions:
REMARK  status: ('A' for Active; 'I' for Inactive)
REMARK    1  A    between atoms: C_1  and  O_2
REMARK    2  A    between atoms: O_2  and  C_3
REMARK    3  A    between atoms: C_8  and  O_9
REMARK                            x       y       z     vdW  Elec       q    Type
REMARK                         _______ _______ _______ _____ _____    ______ ____
ROOT
ATOM      1  C   UNL     1      -4.648  12.435  -5.636  0.00  0.00    +0.000 A 
ATOM      2  C   UNL     1      -5.240  12.982  -4.498  0.00  0.00    +0.000 A 
ATOM      3  C   UNL     1      -4.548  13.935  -3.739  0.00  0.00    +0.000 A 
ATOM      4  C   UNL     1      -3.266  14.342  -4.112  0.00  0.00    +0.000 A 
ATOM      5  C   UNL     1      -2.668  13.799  -5.248  0.00  0.00    +0.000 A 
ATOM      6  C   UNL     1      -3.362  12.855  -5.994  0.00  0.00    +0.000 A 
ENDROOT
BRANCH   1   8
ATOM      7  C   UNL     1      -5.240  10.160  -5.986  0.00  0.00    +0.000 C 
ATOM      8  O   UNL     1      -5.205  11.498  -6.469  0.00  0.00    +0.000 OA
ENDBRANCH   1   8
BRANCH   6   9
ATOM      9  O   UNL     1      -2.753  12.337  -7.106  0.00  0.00    +0.000 OA
ATOM     10  H   UNL     1      -3.468  11.883  -7.591  0.00  0.00    +0.000 HD
ENDBRANCH   6   9
TORSDOF 2
ENDMDL
MODEL 3
REMARK VINA RESULT:    -3.501     12.154     13.392
REMARK INTER + INTRA:          -3.846
REMARK INTER:                  -3.808
REMARK INTRA:                  -0.038
REMARK UNBOUND:                -0.038
REMARK  Name = 
REMARK  3 active torsions:
REMARK  status: ('A' for Active; 'I' for Inactive)
REMARK    1  A    between atoms: C_1  and  O_2
REMARK    2  A    between atoms: O_2  and  C_3
REMARK    3  A    between atoms: C_8  and  O_9
REMARK                            x       y       z     vdW  Elec       q    Type
REMARK                         _______ _______ _______ _____ _____    ______ ____
ROOT
ATOM      1  C   UNL     1      -3.095  16.652   5.943  0.00  0.00    +0.000 A 
ATOM      2  C   UNL     1      -1.893  17.183   6.407  0.00  0.00    +0.000 A 
ATOM      3  C   UNL     1      -0.702  16.464   6.246  0.00  0.00    +0.000 A 
ATOM      4  C   UNL     1      -0.709  15.214   5.622  0.00  0.00    +0.000 A 
ATOM      5  C   UNL     1      -1.906  14.678   5.156  0.00  0.00    +0.000 A 
ATOM      6  C   UNL     1      -3.083  15.398   5.320  0.00  0.00    +0.000 A 
ENDROOT
BRANCH   1   8
ATOM      7  C   UNL     1      -4.434  18.370   6.895  0.00  0.00    +0.000 C 
ATOM      8  O   UNL     1      -4.331  17.242   6.034  0.00  0.00    +0.000 OA
ENDBRANCH   1   8
BRANCH   6   9
ATOM      9  O   UNL     1      -4.247  14.850   4.854  0.00  0.00    +0.000 OA
ATOM     10  H   UNL     1      -4.725  14.562   5.655  0.00  0.00    +0.000 HD
ENDBRANCH   6   9
TORSDOF 2
ENDMDL
MODEL 4
REMARK VINA RESULT:    -3.453     10.443     11.598
REMARK INTER + INTRA:          -3.794
REMARK INTER:                  -3.753
REMARK INTRA:                  -0.040
REMARK UNBOUND:                -0.038
REMARK  Name = 
REMARK  3 active torsions:
REMARK  status: ('A' for Active; 'I' for Inactive)
REMARK    1  A    between atoms: C_1  and  O_2
REMARK    2  A    between atoms: O_2  and  C_3
REMARK    3  A    between atoms: C_8  and  O_9
REMARK                            x       y       z     vdW  Elec       q    Type
REMARK                         _______ _______ _______ _____ _____    ______ ____
ROOT
ATOM      1  C   UNL     1      -1.290  16.139   3.339  0.00  0.00    +0.000 A 
ATOM      2  C   UNL     1      -0.925  15.045   4.123  0.00  0.00    +0.000 A 
ATOM      3  C   UNL     1      -1.659  14.732   5.274  0.00  0.00    +0.000 A 
ATOM      4  C   UNL     1      -2.758  15.510   5.645  0.00  0.00    +0.000 A 
ATOM      5  C   UNL     1      -3.129  16.604   4.867  0.00  0.00    +0.000 A 
ATOM      6  C   UNL     1      -2.395  16.907   3.727  0.00  0.00    +0.000 A 
ENDROOT
BRANCH   1   8
ATOM      7  C   UNL     1       0.010  15.563   1.435  0.00  0.00    +0.000 C 
ATOM      8  O   UNL     1      -0.665  16.560   2.193  0.00  0.00    +0.000 OA
ENDBRANCH   1   8
BRANCH   6   9
ATOM      9  O   UNL     1      -2.779  17.987   2.979  0.00  0.00    +0.000 OA
ATOM     10  H   UNL     1      -2.732  17.677   2.054  0.00  0.00    +0.000 HD
ENDBRANCH   6   9
TORSDOF 2
ENDMDL
MODEL 5
REMARK VINA RESULT:    -3.336     11.326     12.104
REMARK INTER + INTRA:          -3.666
REMARK INTER:                  -3.626
REMARK INTRA:                  -0.040
REMARK UNBOUND:                -0.038
REMARK  Name = 
REMARK  3 active torsions:
REMARK  status: ('A' for Active; 'I' for Inactive)
REMARK    1  A    between atoms: C_1  and  O_2
REMARK    2  A    between atoms: O_2  and  C_3
REMARK    3  A    between atoms: C_8  and  O_9
REMARK                            x       y       z     vdW  Elec       q    Type
REMARK                         _______ _______ _______ _____ _____    ______ ____
ROOT
ATOM      1  C   UNL     1      -2.708  16.447   4.503  0.00  0.00    +0.000 A 
ATOM      2  C   UNL     1      -2.458  17.523   3.652  0.00  0.00    +0.000 A 
ATOM      3  C   UNL     1      -1.403  17.457   2.733  0.00  0.00    +0.000 A 
ATOM      4  C   UNL     1      -0.597  16.320   2.661  0.00  0.00    +0.000 A 
ATOM      5  C   UNL     1      -0.841  15.241   3.508  0.00  0.00    +0.000 A 
ATOM      6  C   UNL     1      -1.889  15.315   4.417  0.00  0.00    +0.000 A 
ENDROOT
BRANCH   1   8
ATOM      7  C   UNL     1      -4.128  17.606   6.015  0.00  0.00    +0.000 C 
ATOM      8  O   UNL     1      -3.700  16.374   5.447  0.00  0.00    +0.000 OA
ENDBRANCH   1   8
BRANCH   6   9
ATOM      9  O   UNL     1      -2.109  14.242   5.238  0.00  0.00    +0.000 OA
ATOM     10  H   UNL     1      -2.207  13.482   4.634  0.00  0.00    +0.000 HD
ENDBRANCH   6   9
TORSDOF 2
ENDMDL
MODEL 6
REMARK VINA RESULT:    -3.321     11.151     11.914
REMARK INTER + INTRA:          -3.650
REMARK INTER:                  -3.609
REMARK INTRA:                  -0.041
REMARK UNBOUND:                -0.038
REMARK  Name = 
REMARK  3 active torsions:
REMARK  status: ('A' for Active; 'I' for Inactive)
REMARK    1  A    between atoms: C_1  and  O_2
REMARK    2  A    between atoms: O_2  and  C_3
REMARK    3  A    between atoms: C_8  and  O_9
REMARK                            x       y       z     vdW  Elec       q    Type
REMARK                         _______ _______ _______ _____ _____    ______ ____
ROOT
ATOM      1  C   UNL     1      -2.858  16.829   4.174  0.00  0.00    +0.000 A 
ATOM      2  C   UNL     1      -3.087  16.058   5.313  0.00  0.00    +0.000 A 
ATOM      3  C   UNL     1      -2.224  15.002   5.629  0.00  0.00    +0.000 A 
ATOM      4  C   UNL     1      -1.131  14.711   4.809  0.00  0.00    +0.000 A 
ATOM      5  C   UNL     1      -0.895  15.477   3.670  0.00  0.00    +0.000 A 
ATOM      6  C   UNL     1      -1.757  16.523   3.364  0.00  0.00    +0.000 A 
ENDROOT
BRANCH   1   8
ATOM      7  C   UNL     1      -4.994  17.868   4.105  0.00  0.00    +0.000 C 
ATOM      8  O   UNL     1      -3.617  17.888   3.745  0.00  0.00    +0.000 OA
ENDBRANCH   1   8
BRANCH   6   9
ATOM      9  O   UNL     1      -1.505  17.261   2.239  0.00  0.00    +0.000 OA
ATOM     10  H   UNL     1      -2.080  16.873   1.553  0.00  0.00    +0.000 HD
ENDBRANCH   6   9
TORSDOF 2
ENDMDL
MODEL 7
REMARK VINA RESULT:    -3.314      1.398      3.196
REMARK INTER + INTRA:          -3.642
REMARK INTER:                  -3.590
REMARK INTRA:                  -0.052
REMARK UNBOUND:                -0.038
REMARK  Name = 
REMARK  3 active torsions:
REMARK  status: ('A' for Active; 'I' for Inactive)
REMARK    1  A    between atoms: C_1  and  O_2
REMARK    2  A    between atoms: O_2  and  C_3
REMARK    3  A    between atoms: C_8  and  O_9
REMARK                            x       y       z     vdW  Elec       q    Type
REMARK                         _______ _______ _______ _____ _____    ______ ____
ROOT
ATOM      1  C   UNL     1      -3.717  13.473  -6.697  0.00  0.00    +0.000 A 
ATOM      2  C   UNL     1      -3.723  13.833  -5.350  0.00  0.00    +0.000 A 
ATOM      3  C   UNL     1      -4.484  13.097  -4.432  0.00  0.00    +0.000 A 
ATOM      4  C   UNL     1      -5.240  12.002  -4.857  0.00  0.00    +0.000 A 
ATOM      5  C   UNL     1      -5.239  11.637  -6.201  0.00  0.00    +0.000 A 
ATOM      6  C   UNL     1      -4.482  12.372  -7.104  0.00  0.00    +0.000 A 
ENDROOT
BRANCH   1   8
ATOM      7  C   UNL     1      -3.459  15.407  -8.052  0.00  0.00    +0.000 C 
ATOM      8  O   UNL     1      -3.023  14.100  -7.700  0.00  0.00    +0.000 OA
ENDBRANCH   1   8
BRANCH   6   9
ATOM      9  O   UNL     1      -4.496  11.994  -8.419  0.00  0.00    +0.000 OA
ATOM     10  H   UNL     1      -4.057  11.122  -8.432  0.00  0.00    +0.000 HD
ENDBRANCH   6   9
TORSDOF 2
ENDMDL
MODEL 8
REMARK VINA RESULT:    -3.251      4.060      5.144
REMARK INTER + INTRA:          -3.574
REMARK INTER:                  -3.522
REMARK INTRA:                  -0.051
REMARK UNBOUND:                -0.038
REMARK  Name = 
REMARK  3 active torsions:
REMARK  status: ('A' for Active; 'I' for Inactive)
REMARK    1  A    between atoms: C_1  and  O_2
REMARK    2  A    between atoms: O_2  and  C_3
REMARK    3  A    between atoms: C_8  and  O_9
REMARK                            x       y       z     vdW  Elec       q    Type
REMARK                         _______ _______ _______ _____ _____    ______ ____
ROOT
ATOM      1  C   UNL     1      -2.827  14.527  -3.645  0.00  0.00    +0.000 A 
ATOM      2  C   UNL     1      -2.516  13.775  -4.777  0.00  0.00    +0.000 A 
ATOM      3  C   UNL     1      -3.542  13.225  -5.556  0.00  0.00    +0.000 A 
ATOM      4  C   UNL     1      -4.879  13.423  -5.207  0.00  0.00    +0.000 A 
ATOM      5  C   UNL     1      -5.198  14.174  -4.078  0.00  0.00    +0.000 A 
ATOM      6  C   UNL     1      -4.174  14.715  -3.311  0.00  0.00    +0.000 A 
ENDROOT
BRANCH   1   8
ATOM      7  C   UNL     1      -1.038  16.067  -3.372  0.00  0.00    +0.000 C 
ATOM      8  O   UNL     1      -1.930  15.121  -2.794  0.00  0.00    +0.000 OA
ENDBRANCH   1   8
BRANCH   6   9
ATOM      9  O   UNL     1      -4.512  15.449  -2.205  0.00  0.00    +0.000 OA
ATOM     10  H   UNL     1      -3.835  16.150  -2.156  0.00  0.00    +0.000 HD
ENDBRANCH   6   9
TORSDOF 2
ENDMDL
