MODEL 1
REMARK VINA RESULT:    -3.753      0.000      0.000
REMARK INTER + INTRA:          -4.131
REMARK INTER:                  -4.082
REMARK INTRA:                  -0.049
REMARK UNBOUND:                -0.049
REMARK  Name = 
REMARK  3 active torsions:
REMARK  status: ('A' for Active; 'I' for Inactive)
REMARK    1  A    between atoms: C_1  and  O_2
REMARK    2  A    between atoms: O_2  and  C_3
REMARK    3  A    between atoms: C_8  and  O_9
REMARK                            x       y       z     vdW  Elec       q    Type
REMARK                         _______ _______ _______ _____ _____    ______ ____
ROOT
ATOM      1  C   UNL     1      -4.644  11.776  -6.251  0.00  0.00    +0.000 A 
ATOM      2  C   UNL     1      -4.845  12.300  -4.975  0.00  0.00    +0.000 A 
ATOM      3  C   UNL     1      -5.142  13.659  -4.815  0.00  0.00    +0.000 A 
ATOM      4  C   UNL     1      -5.237  14.498  -5.926  0.00  0.00    +0.000 A 
ATOM      5  C   UNL     1      -5.038  13.983  -7.205  0.00  0.00    +0.000 A 
ATOM      6  C   UNL     1      -4.743  12.634  -7.354  0.00  0.00    +0.000 A 
ENDROOT
BRANCH   1   8
ATOM      7  C   UNL     1      -5.202   9.481  -5.999  0.00  0.00    +0.000 C 
ATOM      8  O   UNL     1      -4.347  10.472  -6.556  0.00  0.00    +0.000 OA
ENDBRANCH   1   8
BRANCH   6   9
ATOM      9  O   UNL     1      -4.551  12.150  -8.621  0.00  0.00    +0.000 OA
ATOM     10  H   UNL     1      -5.396  12.316  -9.081  0.00  0.00    +0.000 HD
ENDBRANCH   6   9
TORSDOF 2
ENDMDL
MODEL 2
REMARK VINA RESULT:    -3.536      1.652      1.895
REMARK INTER + INTRA:          -3.895
REMARK INTER:                  -3.860
REMARK INTRA:                  -0.035
REMARK UNBOUND:                -0.049
REMARK  Name = 
REMARK  3 active torsions:
REMARK  status: ('A' for Active; 'I' for Inactive)
REMARK    1  A    between atoms: C_1  and  O_2
REMARK    2  A    between atoms: O_2  and  C_3
REMARK    3  A    between atoms: C_8  and  O_9
REMARK                            x       y       z     vdW  Elec       q    Type
REMARK                         _______ _______ _______ _____ _____    ______ ____
ROOT
ATOM      1  C   UNL     1      -4.649  12.451  -5.639  0.00  0.00    +0.000 A 
ATOM      2  C   UNL     1      -5.240  12.987  -4.495  0.00  0.00    +0.000 A 
ATOM      3  C   UNL     1      -4.540  13.915  -3.715  0.00  0.00    +0.000 A 
ATOM      4  C   UNL     1      -3.249  14.309  -4.072  0.00  0.00    +0.000 A 
ATOM      5  C   UNL     1      -2.652  13.779  -5.214  0.00  0.00    +0.000 A 
ATOM      6  C   UNL     1      -3.354  12.859  -5.982  0.00  0.00    +0.000 A 
ENDROOT
BRANCH   1   8
ATOM      7  C   UNL     1      -5.239  10.186  -6.050  0.00  0.00    +0.000 C 
ATOM      8  O   UNL     1      -5.215  11.538  -6.492  0.00  0.00    +0.000 OA
ENDBRANCH   1   8
BRANCH   6   9
ATOM      9  O   UNL     1      -2.746  12.352  -7.099  0.00  0.00    +0.000 OA
ATOM     10  H   UNL     1      -1.878  12.033  -6.787  0.00  0.00    +0.000 HD
ENDBRANCH   6   9
TORSDOF 2
ENDMDL
MODEL 3
REMARK VINA RESULT:    -3.508     12.170     13.384
REMARK INTER + INTRA:          -3.865
REMARK INTER:                  -3.827
REMARK INTRA:                  -0.038
REMARK UNBOUND:                -0.049
REMARK  Name = 
REMARK  3 active torsions:
REMARK  status: ('A' for Active; 'I' for Inactive)
REMARK    1  A    between atoms: C_1  and  O_2
REMARK    2  A    between atoms: O_2  and  C_3
REMARK    3  A    between atoms: C_8  and  O_9
REMARK                            x       y       z     vdW  Elec       q    Type
REMARK                         _______ _______ _______ _____ _____    ______ ____
ROOT
ATOM      1  C   UNL     1      -3.102  16.630   5.948  0.00  0.00    +0.000 A 
ATOM      2  C   UNL     1      -1.899  17.156   6.416  0.00  0.00    +0.000 A 
ATOM      3  C   UNL     1      -0.708  16.439   6.245  0.00  0.00    +0.000 A 
ATOM      4  C   UNL     1      -0.715  15.196   5.608  0.00  0.00    +0.000 A 
ATOM      5  C   UNL     1      -1.913  14.664   5.137  0.00  0.00    +0.000 A 
ATOM      6  C   UNL     1      -3.089  15.382   5.311  0.00  0.00    +0.000 A 
ENDROOT
BRANCH   1   8
ATOM      7  C   UNL     1      -4.432  18.357   6.894  0.00  0.00    +0.000 C 
ATOM      8  O   UNL     1      -4.337  17.218   6.047  0.00  0.00    +0.000 OA
ENDBRANCH   1   8
BRANCH   6   9
ATOM      9  O   UNL     1      -4.254  14.838   4.840  0.00  0.00    +0.000 OA
ATOM     10  H   UNL     1      -4.072  14.635   3.903  0.00  0.00    +0.000 HD
ENDBRANCH   6   9
TORSDOF 2
ENDMDL
MODEL 4
REMARK VINA RESULT:    -3.455     10.358     11.570
REMARK INTER + INTRA:          -3.807
REMARK INTER:                  -3.765
REMARK INTRA:                  -0.042
REMARK UNBOUND:                -0.049
REMARK  Name = 
REMARK  3 active torsions:
REMARK  status: ('A' for Active; 'I' for Inactive)
REMARK    1  A    between atoms: C_1  and  O_2
REMARK    2  A    between atoms: O_2  and  C_3
REMARK    3  A    between atoms: C_8  and  O_9
REMARK                            x       y       z     vdW  Elec       q    Type
REMARK                         _______ _______ _______ _____ _____    ______ ____
ROOT
ATOM      1  C   UNL     1      -1.224  16.093   3.375  0.00  0.00    +0.000 A 
ATOM      2  C   UNL     1      -0.910  15.004   4.189  0.00  0.00    +0.000 A 
ATOM      3  C   UNL     1      -1.702  14.716   5.307  0.00  0.00    +0.000 A 
ATOM      4  C   UNL     1      -2.807  15.511   5.617  0.00  0.00    +0.000 A 
ATOM      5  C   UNL     1      -3.127  16.600   4.809  0.00  0.00    +0.000 A 
ATOM      6  C   UNL     1      -2.335  16.879   3.702  0.00  0.00    +0.000 A 
ENDROOT
BRANCH   1   8
ATOM      7  C   UNL     1       0.075  15.464   1.488  0.00  0.00    +0.000 C 
ATOM      8  O   UNL     1      -0.540  16.491   2.255  0.00  0.00    +0.000 OA
ENDBRANCH   1   8
BRANCH   6   9
ATOM      9  O   UNL     1      -2.670  17.955   2.923  0.00  0.00    +0.000 OA
ATOM     10  H   UNL     1      -3.069  17.566   2.121  0.00  0.00    +0.000 HD
ENDBRANCH   6   9
TORSDOF 2
ENDMDL
MODEL 5
REMARK VINA RESULT:    -3.342     12.864     14.201
REMARK INTER + INTRA:          -3.684
REMARK INTER:                  -3.633
REMARK INTRA:                  -0.052
REMARK UNBOUND:                -0.049
REMARK  Name = 
REMARK  3 active torsions:
REMARK  status: ('A' for Active; 'I' for Inactive)
REMARK    1  A    between atoms: C_1  and  O_2
REMARK    2  A    between atoms: O_2  and  C_3
REMARK    3  A    between atoms: C_8  and  O_9
REMARK                            x       y       z     vdW  Elec       q    Type
REMARK                         _______ _______ _______ _____ _____    ______ ____
ROOT
ATOM      1  C   UNL     1      -1.765  16.930   6.759  0.00  0.00    +0.000 A 
ATOM      2  C   UNL     1      -0.557  16.302   6.461  0.00  0.00    +0.000 A 
ATOM      3  C   UNL     1      -0.533  15.211   5.583  0.00  0.00    +0.000 A 
ATOM      4  C   UNL     1      -1.714  14.744   5.003  0.00  0.00    +0.000 A 
ATOM      5  C   UNL     1      -2.925  15.367   5.295  0.00  0.00    +0.000 A 
ATOM      6  C   UNL     1      -2.939  16.448   6.167  0.00  0.00    +0.000 A 
ENDROOT
BRANCH   1   8
ATOM      7  C   UNL     1      -1.744  17.760   8.986  0.00  0.00    +0.000 C 
ATOM      8  O   UNL     1      -1.937  18.003   7.597  0.00  0.00    +0.000 OA
ENDBRANCH   1   8
BRANCH   6   9
ATOM      9  O   UNL     1      -4.142  17.043   6.439  0.00  0.00    +0.000 OA
ATOM     10  H   UNL     1      -3.919  17.971   6.645  0.00  0.00    +0.000 HD
ENDBRANCH   6   9
TORSDOF 2
ENDMDL
MODEL 6
REMARK VINA RESULT:    -3.330      1.533      3.047
REMARK INTER + INTRA:          -3.671
REMARK INTER:                  -3.631
REMARK INTRA:                  -0.039
REMARK UNBOUND:                -0.049
REMARK  Name = 
REMARK  3 active torsions:
REMARK  status: ('A' for Active; 'I' for Inactive)
REMARK    1  A    between atoms: C_1  and  O_2
REMARK    2  A    between atoms: O_2  and  C_3
REMARK    3  A    between atoms: C_8  and  O_9
REMARK                            x       y       z     vdW  Elec       q    Type
REMARK                         _______ _______ _______ _____ _____    ______ ____
ROOT
ATOM      1  C   UNL     1      -3.722  13.490  -6.720  0.00  0.00    +0.000 A 
ATOM      2  C   UNL     1      -3.731  13.857  -5.375  0.00  0.00    +0.000 A 
ATOM      3  C   UNL     1      -4.489  13.122  -4.455  0.00  0.00    +0.000 A 
ATOM      4  C   UNL     1      -5.240  12.022  -4.874  0.00  0.00    +0.000 A 
ATOM      5  C   UNL     1      -5.236  11.650  -6.216  0.00  0.00    +0.000 A 
ATOM      6  C   UNL     1      -4.481  12.384  -7.122  0.00  0.00    +0.000 A 
ENDROOT
BRANCH   1   8
ATOM      7  C   UNL     1      -2.659  15.469  -7.497  0.00  0.00    +0.000 C 
ATOM      8  O   UNL     1      -3.030  14.115  -7.727  0.00  0.00    +0.000 OA
ENDBRANCH   1   8
BRANCH   6   9
ATOM      9  O   UNL     1      -4.493  11.998  -8.436  0.00  0.00    +0.000 OA
ATOM     10  H   UNL     1      -4.260  12.805  -8.934  0.00  0.00    +0.000 HD
ENDBRANCH   6   9
TORSDOF 2
ENDMDL
MODEL 7
REMARK VINA RESULT:    -3.308     11.118     11.899
REMARK INTER + INTRA:          -3.647
REMARK INTER:                  -3.607
REMARK INTRA:                  -0.040
REMARK UNBOUND:                -0.049
REMARK  Name = 
REMARK  3 active torsions:
REMARK  status: ('A' for Active; 'I' for Inactive)
REMARK    1  A    between atoms: C_1  and  O_2
REMARK    2  A    between atoms: O_2  and  C_3
REMARK    3  A    between atoms: C_8  and  O_9
REMARK                            x       y       z     vdW  Elec       q    Type
REMARK                         _______ _______ _______ _____ _____    ______ ____
ROOT
ATOM      1  C   UNL     1      -2.869  16.818   4.156  0.00  0.00    +0.000 A 
ATOM      2  C   UNL     1      -3.090  16.028   5.283  0.00  0.00    +0.000 A 
ATOM      3  C   UNL     1      -2.201  14.993   5.597  0.00  0.00    +0.000 A 
ATOM      4  C   UNL     1      -1.091  14.743   4.788  0.00  0.00    +0.000 A 
ATOM      5  C   UNL     1      -0.863  15.528   3.660  0.00  0.00    +0.000 A 
ATOM      6  C   UNL     1      -1.751  16.553   3.356  0.00  0.00    +0.000 A 
ENDROOT
BRANCH   1   8
ATOM      7  C   UNL     1      -5.016  17.838   4.138  0.00  0.00    +0.000 C 
ATOM      8  O   UNL     1      -3.653  17.860   3.729  0.00  0.00    +0.000 OA
ENDBRANCH   1   8
BRANCH   6   9
ATOM      9  O   UNL     1      -1.506  17.311   2.242  0.00  0.00    +0.000 OA
ATOM     10  H   UNL     1      -2.120  16.965   1.567  0.00  0.00    +0.000 HD
ENDBRANCH   6   9
TORSDOF 2
ENDMDL
MODEL 8
REMARK VINA RESULT:    -3.182      0.982      2.786
REMARK INTER + INTRA:          -3.510
REMARK INTER:                  -3.473
REMARK INTRA:                  -0.037
REMARK UNBOUND:                -0.049
REMARK  Name = 
REMARK  3 active torsions:
REMARK  status: ('A' for Active; 'I' for Inactive)
REMARK    1  A    between atoms: C_1  and  O_2
REMARK    2  A    between atoms: O_2  and  C_3
REMARK    3  A    between atoms: C_8  and  O_9
REMARK                            x       y       z     vdW  Elec       q    Type
REMARK                         _______ _______ _______ _____ _____    ______ ____
ROOT
ATOM      1  C   UNL     1      -4.955  12.831  -7.590  0.00  0.00    +0.000 A 
ATOM      2  C   UNL     1      -5.156  14.120  -7.097  0.00  0.00    +0.000 A 
ATOM      3  C   UNL     1      -5.203  14.341  -5.715  0.00  0.00    +0.000 A 
ATOM      4  C   UNL     1      -5.050  13.278  -4.823  0.00  0.00    +0.000 A 
ATOM      5  C   UNL     1      -4.848  11.987  -5.308  0.00  0.00    +0.000 A 
ATOM      6  C   UNL     1      -4.804  11.778  -6.680  0.00  0.00    +0.000 A 
ENDROOT
BRANCH   1   8
ATOM      7  C   UNL     1      -4.987  13.522  -9.863  0.00  0.00    +0.000 C 
ATOM      8  O   UNL     1      -4.889  12.470  -8.912  0.00  0.00    +0.000 OA
ENDBRANCH   1   8
BRANCH   6   9
ATOM      9  O   UNL     1      -4.605  10.501  -7.133  0.00  0.00    +0.000 OA
ATOM     10  H   UNL     1      -5.501  10.122  -7.209  0.00  0.00    +0.000 HD
ENDBRANCH   6   9
TORSDOF 2
ENDMDL
