MODEL 1
REMARK VINA RESULT:    -4.632      0.000      0.000
REMARK INTER + INTRA:          -6.553
REMARK INTER:                  -6.256
REMARK INTRA:                  -0.297
REMARK UNBOUND:                -0.297
REMARK  Name = 
REMARK  10 active torsions:
REMARK  status: ('A' for Active; 'I' for Inactive)
REMARK    1  A    between atoms: C_1  and  C_2
REMARK    2  A    between atoms: C_5  and  N_8
REMARK    3  A    between atoms: N_8  and  C_9
REMARK    4  A    between atoms: N_8  and  C_13
REMARK    5  A    between atoms: C_9  and  C_10
REMARK    6  A    between atoms: C_10  and  C_11
REMARK    7  A    between atoms: C_10  and  O_12
REMARK    8  A    between atoms: C_13  and  C_14
REMARK    9  A    between atoms: C_14  and  C_15
REMARK   10  A    between atoms: C_14  and  O_16
REMARK                            x       y       z     vdW  Elec       q    Type
REMARK                         _______ _______ _______ _____ _____    ______ ____
ROOT
ATOM      1  N   UNL     1      -4.030  13.002  -6.259  0.00  0.00    +0.000 N 
ENDROOT
BRANCH   1   6
ATOM      2  C   UNL     1      -1.927  16.169  -1.915  0.00  0.00    +0.000 C 
ATOM      3  C   UNL     1      -2.458  15.328  -3.035  0.00  0.00    +0.000 A 
ATOM      4  C   UNL     1      -1.877  15.373  -4.298  0.00  0.00    +0.000 A 
ATOM      5  C   UNL     1      -2.398  14.605  -5.353  0.00  0.00    +0.000 A 
ATOM      6  C   UNL     1      -3.528  13.780  -5.208  0.00  0.00    +0.000 A 
ATOM      7  C   UNL     1      -4.087  13.758  -3.917  0.00  0.00    +0.000 A 
ATOM      8  C   UNL     1      -3.575  14.519  -2.854  0.00  0.00    +0.000 A 
ENDBRANCH   1   6
BRANCH   1   9
ATOM      9  C   UNL     1      -5.231  13.447  -7.006  0.00  0.00    +0.000 C 
BRANCH   9  10
ATOM     10  C   UNL     1      -4.958  13.652  -8.516  0.00  0.00    +0.000 C 
ATOM     11  C   UNL     1      -3.693  14.475  -8.734  0.00  0.00    +0.000 C 
BRANCH  10  12
ATOM     12  O   UNL     1      -4.789  12.394  -9.184  0.00  0.00    +0.000 OA
ATOM     13  H   UNL     1      -4.088  11.902  -8.727  0.00  0.00    +0.000 HD
ENDBRANCH  10  12
ENDBRANCH   9  10
ENDBRANCH   1   9
BRANCH   1  14
ATOM     14  C   UNL     1      -3.749  11.546  -6.341  0.00  0.00    +0.000 C 
BRANCH  14  15
ATOM     15  C   UNL     1      -4.982  10.691  -5.963  0.00  0.00    +0.000 C 
ATOM     16  C   UNL     1      -4.849   9.230  -6.379  0.00  0.00    +0.000 C 
BRANCH  15  17
ATOM     17  O   UNL     1      -5.240  10.728  -4.560  0.00  0.00    +0.000 OA
ATOM     18  H   UNL     1      -4.365  10.613  -4.139  0.00  0.00    +0.000 HD
ENDBRANCH  15  17
ENDBRANCH  14  15
ENDBRANCH   1  14
TORSDOF 7
ENDMDL
MODEL 2
REMARK VINA RESULT:    -4.624      0.965      1.539
REMARK INTER + INTRA:          -6.543
REMARK INTER:                  -6.151
REMARK INTRA:                  -0.392
REMARK UNBOUND:                -0.297
REMARK  Name = 
REMARK  10 active torsions:
REMARK  status: ('A' for Active; 'I' for Inactive)
REMARK    1  A    between atoms: C_1  and  C_2
REMARK    2  A    between atoms: C_5  and  N_8
REMARK    3  A    between atoms: N_8  and  C_9
REMARK    4  A    between atoms: N_8  and  C_13
REMARK    5  A    between atoms: C_9  and  C_10
REMARK    6  A    between atoms: C_10  and  C_11
REMARK    7  A    between atoms: C_10  and  O_12
REMARK    8  A    between atoms: C_13  and  C_14
REMARK    9  A    between atoms: C_14  and  C_15
REMARK   10  A    between atoms: C_14  and  O_16
REMARK                            x       y       z     vdW  Elec       q    Type
REMARK                         _______ _______ _______ _____ _____    ______ ____
ROOT
ATOM      1  N   UNL     1      -4.616  13.332  -6.166  0.00  0.00    +0.000 N 
ENDROOT
BRANCH   1   6
ATOM      2  C   UNL     1      -1.745  15.860  -1.841  0.00  0.00    +0.000 C 
ATOM      3  C   UNL     1      -2.499  15.226  -2.970  0.00  0.00    +0.000 A 
ATOM      4  C   UNL     1      -3.772  14.701  -2.773  0.00  0.00    +0.000 A 
ATOM      5  C   UNL     1      -4.463  14.082  -3.827  0.00  0.00    +0.000 A 
ATOM      6  C   UNL     1      -3.914  13.934  -5.114  0.00  0.00    +0.000 A 
ATOM      7  C   UNL     1      -2.627  14.478  -5.277  0.00  0.00    +0.000 A 
ATOM      8  C   UNL     1      -1.926  15.102  -4.232  0.00  0.00    +0.000 A 
ENDBRANCH   1   6
BRANCH   1   9
ATOM      9  C   UNL     1      -5.196  14.166  -7.245  0.00  0.00    +0.000 C 
BRANCH   9  10
ATOM     10  C   UNL     1      -4.574  13.871  -8.632  0.00  0.00    +0.000 C 
ATOM     11  C   UNL     1      -3.173  14.464  -8.738  0.00  0.00    +0.000 C 
BRANCH  10  12
ATOM     12  O   UNL     1      -4.477  12.459  -8.862  0.00  0.00    +0.000 OA
ATOM     13  H   UNL     1      -3.661  12.140  -8.442  0.00  0.00    +0.000 HD
ENDBRANCH  10  12
ENDBRANCH   9  10
ENDBRANCH   1   9
BRANCH   1  14
ATOM     14  C   UNL     1      -5.240  11.994  -6.007  0.00  0.00    +0.000 C 
BRANCH  14  15
ATOM     15  C   UNL     1      -4.188  10.861  -5.954  0.00  0.00    +0.000 C 
ATOM     16  C   UNL     1      -4.742   9.507  -6.382  0.00  0.00    +0.000 C 
BRANCH  15  17
ATOM     17  O   UNL     1      -3.056  11.153  -6.772  0.00  0.00    +0.000 OA
ATOM     18  H   UNL     1      -3.084  12.122  -6.905  0.00  0.00    +0.000 HD
ENDBRANCH  15  17
ENDBRANCH  14  15
ENDBRANCH   1  14
TORSDOF 7
ENDMDL
MODEL 3
REMARK VINA RESULT:    -4.564      2.814      4.424
REMARK INTER + INTRA:          -6.461
REMARK INTER:                  -5.939
REMARK INTRA:                  -0.523
REMARK UNBOUND:                -0.297
REMARK  Name = 
REMARK  10 active torsions:
REMARK  status: ('A' for Active; 'I' for Inactive)
REMARK    1  A    between atoms: C_1  and  C_2
REMARK    2  A    between atoms: C_5  and  N_8
REMARK    3  A    between atoms: N_8  and  C_9
REMARK    4  A    between atoms: N_8  and  C_13
REMARK    5  A    between atoms: C_9  and  C_10
REMARK    6  A    between atoms: C_10  and  C_11
REMARK    7  A    between atoms: C_10  and  O_12
REMARK    8  A    between atoms: C_13  and  C_14
REMARK    9  A    between atoms: C_14  and  C_15
REMARK   10  A    between atoms: C_14  and  O_16
REMARK                            x       y       z     vdW  Elec       q    Type
REMARK                         _______ _______ _______ _____ _____    ______ ____
ROOT
ATOM      1  N   UNL     1      -3.259  15.295  -5.320  0.00  0.00    +0.000 N 
ENDROOT
BRANCH   1   6
ATOM      2  C   UNL     1       1.860  17.555  -6.742  0.00  0.00    +0.000 C 
ATOM      3  C   UNL     1       0.524  16.991  -6.366  0.00  0.00    +0.000 A 
ATOM      4  C   UNL     1       0.299  16.474  -5.094  0.00  0.00    +0.000 A 
ATOM      5  C   UNL     1      -0.946  15.919  -4.757  0.00  0.00    +0.000 A 
ATOM      6  C   UNL     1      -2.013  15.832  -5.669  0.00  0.00    +0.000 A 
ATOM      7  C   UNL     1      -1.751  16.366  -6.944  0.00  0.00    +0.000 A 
ATOM      8  C   UNL     1      -0.511  16.926  -7.294  0.00  0.00    +0.000 A 
ENDBRANCH   1   6
BRANCH   1   9
ATOM      9  C   UNL     1      -3.903  14.283  -6.192  0.00  0.00    +0.000 C 
BRANCH   9  10
ATOM     10  C   UNL     1      -3.554  12.830  -5.785  0.00  0.00    +0.000 C 
ATOM     11  C   UNL     1      -4.806  12.065  -5.370  0.00  0.00    +0.000 C 
BRANCH  10  12
ATOM     12  O   UNL     1      -2.942  12.124  -6.872  0.00  0.00    +0.000 OA
ATOM     13  H   UNL     1      -2.723  11.229  -6.565  0.00  0.00    +0.000 HD
ENDBRANCH  10  12
ENDBRANCH   9  10
ENDBRANCH   1   9
BRANCH   1  14
ATOM     14  C   UNL     1      -4.188  16.028  -4.422  0.00  0.00    +0.000 C 
BRANCH  14  15
ATOM     15  C   UNL     1      -4.574  15.196  -3.176  0.00  0.00    +0.000 C 
ATOM     16  C   UNL     1      -3.392  14.461  -2.555  0.00  0.00    +0.000 C 
BRANCH  15  17
ATOM     17  O   UNL     1      -5.170  16.007  -2.164  0.00  0.00    +0.000 OA
ATOM     18  H   UNL     1      -6.059  15.624  -2.024  0.00  0.00    +0.000 HD
ENDBRANCH  15  17
ENDBRANCH  14  15
ENDBRANCH   1  14
TORSDOF 7
ENDMDL
MODEL 4
REMARK VINA RESULT:    -4.392      1.288      3.435
REMARK INTER + INTRA:          -6.230
REMARK INTER:                  -5.602
REMARK INTRA:                  -0.628
REMARK UNBOUND:                -0.297
REMARK  Name = 
REMARK  10 active torsions:
REMARK  status: ('A' for Active; 'I' for Inactive)
REMARK    1  A    between atoms: C_1  and  C_2
REMARK    2  A    between atoms: C_5  and  N_8
REMARK    3  A    between atoms: N_8  and  C_9
REMARK    4  A    between atoms: N_8  and  C_13
REMARK    5  A    between atoms: C_9  and  C_10
REMARK    6  A    between atoms: C_10  and  C_11
REMARK    7  A    between atoms: C_10  and  O_12
REMARK    8  A    between atoms: C_13  and  C_14
REMARK    9  A    between atoms: C_14  and  C_15
REMARK   10  A    between atoms: C_14  and  O_16
REMARK                            x       y       z     vdW  Elec       q    Type
REMARK                         _______ _______ _______ _____ _____    ______ ____
ROOT
ATOM      1  N   UNL     1      -4.784  14.003  -6.589  0.00  0.00    +0.000 N 
ENDROOT
BRANCH   1   6
ATOM      2  C   UNL     1      -1.830  15.490  -1.857  0.00  0.00    +0.000 C 
ATOM      3  C   UNL     1      -2.604  15.128  -3.088  0.00  0.00    +0.000 A 
ATOM      4  C   UNL     1      -3.923  14.697  -3.001  0.00  0.00    +0.000 A 
ATOM      5  C   UNL     1      -4.634  14.330  -4.155  0.00  0.00    +0.000 A 
ATOM      6  C   UNL     1      -4.063  14.352  -5.440  0.00  0.00    +0.000 A 
ATOM      7  C   UNL     1      -2.728  14.795  -5.491  0.00  0.00    +0.000 A 
ATOM      8  C   UNL     1      -2.007  15.167  -4.344  0.00  0.00    +0.000 A 
ENDBRANCH   1   6
BRANCH   1   9
ATOM      9  C   UNL     1      -5.200  12.597  -6.808  0.00  0.00    +0.000 C 
BRANCH   9  10
ATOM     10  C   UNL     1      -4.188  11.576  -6.232  0.00  0.00    +0.000 C 
ATOM     11  C   UNL     1      -4.766  10.165  -6.252  0.00  0.00    +0.000 C 
BRANCH  10  12
ATOM     12  O   UNL     1      -2.973  11.569  -6.994  0.00  0.00    +0.000 OA
ATOM     13  H   UNL     1      -2.655  12.484  -7.063  0.00  0.00    +0.000 HD
ENDBRANCH  10  12
ENDBRANCH   9  10
ENDBRANCH   1   9
BRANCH   1  14
ATOM     14  C   UNL     1      -4.718  14.833  -7.820  0.00  0.00    +0.000 C 
BRANCH  14  15
ATOM     15  C   UNL     1      -4.089  14.067  -9.008  0.00  0.00    +0.000 C 
ATOM     16  C   UNL     1      -4.368  14.719 -10.357  0.00  0.00    +0.000 C 
BRANCH  15  17
ATOM     17  O   UNL     1      -2.676  13.937  -8.864  0.00  0.00    +0.000 OA
ATOM     18  H   UNL     1      -2.450  14.489  -8.088  0.00  0.00    +0.000 HD
ENDBRANCH  15  17
ENDBRANCH  14  15
ENDBRANCH   1  14
TORSDOF 7
ENDMDL
MODEL 5
REMARK VINA RESULT:    -4.311      1.935      5.191
REMARK INTER + INTRA:          -6.121
REMARK INTER:                  -5.508
REMARK INTRA:                  -0.612
REMARK UNBOUND:                -0.297
REMARK  Name = 
REMARK  10 active torsions:
REMARK  status: ('A' for Active; 'I' for Inactive)
REMARK    1  A    between atoms: C_1  and  C_2
REMARK    2  A    between atoms: C_5  and  N_8
REMARK    3  A    between atoms: N_8  and  C_9
REMARK    4  A    between atoms: N_8  and  C_13
REMARK    5  A    between atoms: C_9  and  C_10
REMARK    6  A    between atoms: C_10  and  C_11
REMARK    7  A    between atoms: C_10  and  O_12
REMARK    8  A    between atoms: C_13  and  C_14
REMARK    9  A    between atoms: C_14  and  C_15
REMARK   10  A    between atoms: C_14  and  O_16
REMARK                            x       y       z     vdW  Elec       q    Type
REMARK                         _______ _______ _______ _____ _____    ______ ____
ROOT
ATOM      1  N   UNL     1      -4.074  14.049  -6.410  0.00  0.00    +0.000 N 
ENDROOT
BRANCH   1   6
ATOM      2  C   UNL     1      -2.583  15.176 -11.872  0.00  0.00    +0.000 C 
ATOM      3  C   UNL     1      -2.956  14.863 -10.456  0.00  0.00    +0.000 A 
ATOM      4  C   UNL     1      -4.106  14.137 -10.164  0.00  0.00    +0.000 A 
ATOM      5  C   UNL     1      -4.467  13.872  -8.833  0.00  0.00    +0.000 A 
ATOM      6  C   UNL     1      -3.719  14.334  -7.735  0.00  0.00    +0.000 A 
ATOM      7  C   UNL     1      -2.562  15.063  -8.067  0.00  0.00    +0.000 A 
ATOM      8  C   UNL     1      -2.189  15.333  -9.394  0.00  0.00    +0.000 A 
ENDBRANCH   1   6
BRANCH   1   9
ATOM      9  C   UNL     1      -5.024  12.949  -6.115  0.00  0.00    +0.000 C 
BRANCH   9  10
ATOM     10  C   UNL     1      -4.313  11.602  -5.837  0.00  0.00    +0.000 C 
ATOM     11  C   UNL     1      -5.117  10.436  -6.399  0.00  0.00    +0.000 C 
BRANCH  10  12
ATOM     12  O   UNL     1      -3.011  11.573  -6.437  0.00  0.00    +0.000 OA
ATOM     13  H   UNL     1      -2.440  12.188  -5.947  0.00  0.00    +0.000 HD
ENDBRANCH  10  12
ENDBRANCH   9  10
ENDBRANCH   1   9
BRANCH   1  14
ATOM     14  C   UNL     1      -3.961  15.079  -5.346  0.00  0.00    +0.000 C 
BRANCH  14  15
ATOM     15  C   UNL     1      -2.889  14.715  -4.291  0.00  0.00    +0.000 C 
ATOM     16  C   UNL     1      -3.483  14.192  -2.988  0.00  0.00    +0.000 C 
BRANCH  15  17
ATOM     17  O   UNL     1      -1.976  13.735  -4.784  0.00  0.00    +0.000 OA
ATOM     18  H   UNL     1      -2.534  12.967  -5.022  0.00  0.00    +0.000 HD
ENDBRANCH  15  17
ENDBRANCH  14  15
ENDBRANCH   1  14
TORSDOF 7
ENDMDL
MODEL 6
REMARK VINA RESULT:    -4.311      5.933      9.013
REMARK INTER + INTRA:          -6.120
REMARK INTER:                  -5.477
REMARK INTRA:                  -0.643
REMARK UNBOUND:                -0.297
REMARK  Name = 
REMARK  10 active torsions:
REMARK  status: ('A' for Active; 'I' for Inactive)
REMARK    1  A    between atoms: C_1  and  C_2
REMARK    2  A    between atoms: C_5  and  N_8
REMARK    3  A    between atoms: N_8  and  C_9
REMARK    4  A    between atoms: N_8  and  C_13
REMARK    5  A    between atoms: C_9  and  C_10
REMARK    6  A    between atoms: C_10  and  C_11
REMARK    7  A    between atoms: C_10  and  O_12
REMARK    8  A    between atoms: C_13  and  C_14
REMARK    9  A    between atoms: C_14  and  C_15
REMARK   10  A    between atoms: C_14  and  O_16
REMARK                            x       y       z     vdW  Elec       q    Type
REMARK                         _______ _______ _______ _____ _____    ______ ____
ROOT
ATOM      1  N   UNL     1      -0.316  17.897   0.206  0.00  0.00    +0.000 N 
ENDROOT
BRANCH   1   6
ATOM      2  C   UNL     1      -1.366  14.693   4.892  0.00  0.00    +0.000 C 
ATOM      3  C   UNL     1      -1.114  15.516   3.665  0.00  0.00    +0.000 A 
ATOM      4  C   UNL     1      -0.342  15.021   2.620  0.00  0.00    +0.000 A 
ATOM      5  C   UNL     1      -0.084  15.808   1.486  0.00  0.00    +0.000 A 
ATOM      6  C   UNL     1      -0.560  17.125   1.348  0.00  0.00    +0.000 A 
ATOM      7  C   UNL     1      -1.339  17.591   2.423  0.00  0.00    +0.000 A 
ATOM      8  C   UNL     1      -1.606  16.814   3.562  0.00  0.00    +0.000 A 
ENDBRANCH   1   6
BRANCH   1   9
ATOM      9  C   UNL     1       0.463  19.155   0.311  0.00  0.00    +0.000 C 
BRANCH   9  10
ATOM     10  C   UNL     1       1.788  19.109  -0.490  0.00  0.00    +0.000 C 
ATOM     11  C   UNL     1       2.839  20.012   0.145  0.00  0.00    +0.000 C 
BRANCH  10  12
ATOM     12  O   UNL     1       2.316  17.776  -0.535  0.00  0.00    +0.000 OA
ATOM     13  H   UNL     1       2.488  17.552  -1.465  0.00  0.00    +0.000 HD
ENDBRANCH  10  12
ENDBRANCH   9  10
ENDBRANCH   1   9
BRANCH   1  14
ATOM     14  C   UNL     1      -1.197  17.806  -0.987  0.00  0.00    +0.000 C 
BRANCH  14  15
ATOM     15  C   UNL     1      -0.973  16.497  -1.780  0.00  0.00    +0.000 C 
ATOM     16  C   UNL     1      -1.994  16.287  -2.892  0.00  0.00    +0.000 C 
BRANCH  15  17
ATOM     17  O   UNL     1       0.329  16.448  -2.361  0.00  0.00    +0.000 OA
ATOM     18  H   UNL     1       0.235  16.888  -3.230  0.00  0.00    +0.000 HD
ENDBRANCH  15  17
ENDBRANCH  14  15
ENDBRANCH   1  14
TORSDOF 7
ENDMDL
MODEL 7
REMARK VINA RESULT:    -4.281      2.106      4.291
REMARK INTER + INTRA:          -6.080
REMARK INTER:                  -5.398
REMARK INTRA:                  -0.682
REMARK UNBOUND:                -0.297
REMARK  Name = 
REMARK  10 active torsions:
REMARK  status: ('A' for Active; 'I' for Inactive)
REMARK    1  A    between atoms: C_1  and  C_2
REMARK    2  A    between atoms: C_5  and  N_8
REMARK    3  A    between atoms: N_8  and  C_9
REMARK    4  A    between atoms: N_8  and  C_13
REMARK    5  A    between atoms: C_9  and  C_10
REMARK    6  A    between atoms: C_10  and  C_11
REMARK    7  A    between atoms: C_10  and  O_12
REMARK    8  A    between atoms: C_13  and  C_14
REMARK    9  A    between atoms: C_14  and  C_15
REMARK   10  A    between atoms: C_14  and  O_16
REMARK                            x       y       z     vdW  Elec       q    Type
REMARK                         _______ _______ _______ _____ _____    ______ ____
ROOT
ATOM      1  N   UNL     1      -4.625  13.757  -6.227  0.00  0.00    +0.000 N 
ENDROOT
BRANCH   1   6
ATOM      2  C   UNL     1      -2.435  17.799  -9.720  0.00  0.00    +0.000 C 
ATOM      3  C   UNL     1      -3.020  16.744  -8.831  0.00  0.00    +0.000 A 
ATOM      4  C   UNL     1      -4.031  17.052  -7.927  0.00  0.00    +0.000 A 
ATOM      5  C   UNL     1      -4.555  16.066  -7.075  0.00  0.00    +0.000 A 
ATOM      6  C   UNL     1      -4.085  14.740  -7.065  0.00  0.00    +0.000 A 
ATOM      7  C   UNL     1      -3.064  14.464  -7.994  0.00  0.00    +0.000 A 
ATOM      8  C   UNL     1      -2.533  15.440  -8.853  0.00  0.00    +0.000 A 
ENDBRANCH   1   6
BRANCH   1   9
ATOM      9  C   UNL     1      -4.301  13.754  -4.780  0.00  0.00    +0.000 C 
BRANCH   9  10
ATOM     10  C   UNL     1      -2.850  14.210  -4.489  0.00  0.00    +0.000 C 
ATOM     11  C   UNL     1      -2.692  14.631  -3.033  0.00  0.00    +0.000 C 
BRANCH  10  12
ATOM     12  O   UNL     1      -1.916  13.152  -4.749  0.00  0.00    +0.000 OA
ATOM     13  H   UNL     1      -2.317  12.549  -5.397  0.00  0.00    +0.000 HD
ENDBRANCH  10  12
ENDBRANCH   9  10
ENDBRANCH   1   9
BRANCH   1  14
ATOM     14  C   UNL     1      -5.081  12.451  -6.768  0.00  0.00    +0.000 C 
BRANCH  14  15
ATOM     15  C   UNL     1      -4.305  11.262  -6.152  0.00  0.00    +0.000 C 
ATOM     16  C   UNL     1      -4.999   9.921  -6.360  0.00  0.00    +0.000 C 
BRANCH  15  17
ATOM     17  O   UNL     1      -2.985  11.162  -6.684  0.00  0.00    +0.000 OA
ATOM     18  H   UNL     1      -2.632  12.075  -6.658  0.00  0.00    +0.000 HD
ENDBRANCH  15  17
ENDBRANCH  14  15
ENDBRANCH   1  14
TORSDOF 7
ENDMDL
MODEL 8
REMARK VINA RESULT:    -4.202      2.878      4.726
REMARK INTER + INTRA:          -5.973
REMARK INTER:                  -5.487
REMARK INTRA:                  -0.485
REMARK UNBOUND:                -0.297
REMARK  Name = 
REMARK  10 active torsions:
REMARK  status: ('A' for Active; 'I' for Inactive)
REMARK    1  A    between atoms: C_1  and  C_2
REMARK    2  A    between atoms: C_5  and  N_8
REMARK    3  A    between atoms: N_8  and  C_9
REMARK    4  A    between atoms: N_8  and  C_13
REMARK    5  A    between atoms: C_9  and  C_10
REMARK    6  A    between atoms: C_10  and  C_11
REMARK    7  A    between atoms: C_10  and  O_12
REMARK    8  A    between atoms: C_13  and  C_14
REMARK    9  A    between atoms: C_14  and  C_15
REMARK   10  A    between atoms: C_14  and  O_16
REMARK                            x       y       z     vdW  Elec       q    Type
REMARK                         _______ _______ _______ _____ _____    ______ ____
ROOT
ATOM      1  N   UNL     1      -2.574  15.230  -4.957  0.00  0.00    +0.000 N 
ENDROOT
BRANCH   1   6
ATOM      2  C   UNL     1       1.876  18.154  -7.187  0.00  0.00    +0.000 C 
ATOM      3  C   UNL     1       0.711  17.417  -6.600  0.00  0.00    +0.000 A 
ATOM      4  C   UNL     1       0.766  16.909  -5.307  0.00  0.00    +0.000 A 
ATOM      5  C   UNL     1      -0.317  16.192  -4.772  0.00  0.00    +0.000 A 
ATOM      6  C   UNL     1      -1.490  15.928  -5.503  0.00  0.00    +0.000 A 
ATOM      7  C   UNL     1      -1.511  16.458  -6.806  0.00  0.00    +0.000 A 
ATOM      8  C   UNL     1      -0.436  17.178  -7.352  0.00  0.00    +0.000 A 
ENDBRANCH   1   6
BRANCH   1   9
ATOM      9  C   UNL     1      -2.523  14.757  -3.553  0.00  0.00    +0.000 C 
BRANCH   9  10
ATOM     10  C   UNL     1      -3.494  15.527  -2.624  0.00  0.00    +0.000 C 
ATOM     11  C   UNL     1      -3.611  16.986  -3.048  0.00  0.00    +0.000 C 
BRANCH  10  12
ATOM     12  O   UNL     1      -4.806  14.948  -2.658  0.00  0.00    +0.000 OA
ATOM     13  H   UNL     1      -5.406  15.586  -3.078  0.00  0.00    +0.000 HD
ENDBRANCH  10  12
ENDBRANCH   9  10
ENDBRANCH   1   9
BRANCH   1  14
ATOM     14  C   UNL     1      -3.537  14.505  -5.825  0.00  0.00    +0.000 C 
BRANCH  14  15
ATOM     15  C   UNL     1      -3.459  12.971  -5.631  0.00  0.00    +0.000 C 
ATOM     16  C   UNL     1      -4.799  12.344  -5.264  0.00  0.00    +0.000 C 
BRANCH  15  17
ATOM     17  O   UNL     1      -2.970  12.316  -6.800  0.00  0.00    +0.000 OA
ATOM     18  H   UNL     1      -3.657  11.657  -7.027  0.00  0.00    +0.000 HD
ENDBRANCH  15  17
ENDBRANCH  14  15
ENDBRANCH   1  14
TORSDOF 7
ENDMDL
MODEL 9
REMARK VINA RESULT:    -4.174      2.379      5.070
REMARK INTER + INTRA:          -5.936
REMARK INTER:                  -5.543
REMARK INTRA:                  -0.393
REMARK UNBOUND:                -0.297
REMARK  Name = 
REMARK  10 active torsions:
REMARK  status: ('A' for Active; 'I' for Inactive)
REMARK    1  A    between atoms: C_1  and  C_2
REMARK    2  A    between atoms: C_5  and  N_8
REMARK    3  A    between atoms: N_8  and  C_9
REMARK    4  A    between atoms: N_8  and  C_13
REMARK    5  A    between atoms: C_9  and  C_10
REMARK    6  A    between atoms: C_10  and  C_11
REMARK    7  A    between atoms: C_10  and  O_12
REMARK    8  A    between atoms: C_13  and  C_14
REMARK    9  A    between atoms: C_14  and  C_15
REMARK   10  A    between atoms: C_14  and  O_16
REMARK                            x       y       z     vdW  Elec       q    Type
REMARK                         _______ _______ _______ _____ _____    ______ ____
ROOT
ATOM      1  N   UNL     1      -3.444  14.976  -5.626  0.00  0.00    +0.000 N 
ENDROOT
BRANCH   1   6
ATOM      2  C   UNL     1      -5.178   9.483  -6.002  0.00  0.00    +0.000 C 
ATOM      3  C   UNL     1      -4.710  10.901  -5.889  0.00  0.00    +0.000 A 
ATOM      4  C   UNL     1      -5.240  11.754  -4.926  0.00  0.00    +0.000 A 
ATOM      5  C   UNL     1      -4.819  13.091  -4.844  0.00  0.00    +0.000 A 
ATOM      6  C   UNL     1      -3.874  13.647  -5.726  0.00  0.00    +0.000 A 
ATOM      7  C   UNL     1      -3.358  12.756  -6.684  0.00  0.00    +0.000 A 
ATOM      8  C   UNL     1      -3.768  11.416  -6.776  0.00  0.00    +0.000 A 
ENDBRANCH   1   6
BRANCH   1   9
ATOM      9  C   UNL     1      -2.852  15.656  -6.803  0.00  0.00    +0.000 C 
BRANCH   9  10
ATOM     10  C   UNL     1      -3.911  16.365  -7.682  0.00  0.00    +0.000 C 
ATOM     11  C   UNL     1      -3.880  15.830  -9.109  0.00  0.00    +0.000 C 
BRANCH  10  12
ATOM     12  O   UNL     1      -5.231  16.164  -7.161  0.00  0.00    +0.000 OA
ATOM     13  H   UNL     1      -5.178  15.500  -6.453  0.00  0.00    +0.000 HD
ENDBRANCH  10  12
ENDBRANCH   9  10
ENDBRANCH   1   9
BRANCH   1  14
ATOM     14  C   UNL     1      -3.083  15.571  -4.314  0.00  0.00    +0.000 C 
BRANCH  14  15
ATOM     15  C   UNL     1      -1.629  16.103  -4.293  0.00  0.00    +0.000 C 
ATOM     16  C   UNL     1      -1.542  17.602  -4.033  0.00  0.00    +0.000 C 
BRANCH  15  17
ATOM     17  O   UNL     1      -0.838  15.437  -3.310  0.00  0.00    +0.000 OA
ATOM     18  H   UNL     1      -1.160  14.513  -3.310  0.00  0.00    +0.000 HD
ENDBRANCH  15  17
ENDBRANCH  14  15
ENDBRANCH   1  14
TORSDOF 7
ENDMDL
