MODEL 1
REMARK VINA RESULT:    -3.657      0.000      0.000
REMARK INTER + INTRA:          -4.030
REMARK INTER:                  -3.978
REMARK INTRA:                  -0.052
REMARK UNBOUND:                -0.052
REMARK  Name = 
REMARK  3 active torsions:
REMARK  status: ('A' for Active; 'I' for Inactive)
REMARK    1  A    between atoms: C_1  and  O_2
REMARK    2  A    between atoms: O_2  and  C_3
REMARK    3  A    between atoms: C_8  and  O_9
REMARK                            x       y       z     vdW  Elec       q    Type
REMARK                         _______ _______ _______ _____ _____    ______ ____
ROOT
ATOM      1  C   UNL     1      -4.462  11.905  -6.367  0.00  0.00    +0.000 A 
ATOM      2  C   UNL     1      -4.655  12.371  -5.067  0.00  0.00    +0.000 A 
ATOM      3  C   UNL     1      -5.044  13.699  -4.851  0.00  0.00    +0.000 A 
ATOM      4  C   UNL     1      -5.240  14.564  -5.930  0.00  0.00    +0.000 A 
ATOM      5  C   UNL     1      -5.050  14.105  -7.231  0.00  0.00    +0.000 A 
ATOM      6  C   UNL     1      -4.663  12.787  -7.436  0.00  0.00    +0.000 A 
ENDROOT
BRANCH   1   8
ATOM      7  C   UNL     1      -4.959   9.581  -6.348  0.00  0.00    +0.000 C 
ATOM      8  O   UNL     1      -4.082  10.636  -6.725  0.00  0.00    +0.000 OA
ENDBRANCH   1   8
BRANCH   6   9
ATOM      9  O   UNL     1      -4.482  12.359  -8.724  0.00  0.00    +0.000 OA
ATOM     10  H   UNL     1      -4.948  13.018  -9.273  0.00  0.00    +0.000 HD
ENDBRANCH   6   9
TORSDOF 2
ENDMDL
MODEL 2
REMARK VINA RESULT:    -3.492     12.250     13.476
REMARK INTER + INTRA:          -3.850
REMARK INTER:                  -3.812
REMARK INTRA:                  -0.038
REMARK UNBOUND:                -0.052
REMARK  Name = 
REMARK  3 active torsions:
REMARK  status: ('A' for Active; 'I' for Inactive)
REMARK    1  A    between atoms: C_1  and  O_2
REMARK    2  A    between atoms: O_2  and  C_3
REMARK    3  A    between atoms: C_8  and  O_9
REMARK                            x       y       z     vdW  Elec       q    Type
REMARK                         _______ _______ _______ _____ _____    ______ ____
ROOT
ATOM      1  C   UNL     1      -3.052  16.630   5.990  0.00  0.00    +0.000 A 
ATOM      2  C   UNL     1      -1.846  17.145   6.463  0.00  0.00    +0.000 A 
ATOM      3  C   UNL     1      -0.657  16.428   6.276  0.00  0.00    +0.000 A 
ATOM      4  C   UNL     1      -0.670  15.197   5.618  0.00  0.00    +0.000 A 
ATOM      5  C   UNL     1      -1.871  14.676   5.143  0.00  0.00    +0.000 A 
ATOM      6  C   UNL     1      -3.045  15.393   5.333  0.00  0.00    +0.000 A 
ENDROOT
BRANCH   1   8
ATOM      7  C   UNL     1      -4.364  18.374   6.930  0.00  0.00    +0.000 C 
ATOM      8  O   UNL     1      -4.285  17.220   6.103  0.00  0.00    +0.000 OA
ENDBRANCH   1   8
BRANCH   6   9
ATOM      9  O   UNL     1      -4.213  14.860   4.857  0.00  0.00    +0.000 OA
ATOM     10  H   UNL     1      -4.860  15.589   4.914  0.00  0.00    +0.000 HD
ENDBRANCH   6   9
TORSDOF 2
ENDMDL
MODEL 3
REMARK VINA RESULT:    -3.453     10.339     11.564
REMARK INTER + INTRA:          -3.808
REMARK INTER:                  -3.767
REMARK INTRA:                  -0.042
REMARK UNBOUND:                -0.052
REMARK  Name = 
REMARK  3 active torsions:
REMARK  status: ('A' for Active; 'I' for Inactive)
REMARK    1  A    between atoms: C_1  and  O_2
REMARK    2  A    between atoms: O_2  and  C_3
REMARK    3  A    between atoms: C_8  and  O_9
REMARK                            x       y       z     vdW  Elec       q    Type
REMARK                         _______ _______ _______ _____ _____    ______ ____
ROOT
ATOM      1  C   UNL     1      -1.237  16.091   3.364  0.00  0.00    +0.000 A 
ATOM      2  C   UNL     1      -0.928  15.007   4.185  0.00  0.00    +0.000 A 
ATOM      3  C   UNL     1      -1.712  14.740   5.315  0.00  0.00    +0.000 A 
ATOM      4  C   UNL     1      -2.804  15.552   5.627  0.00  0.00    +0.000 A 
ATOM      5  C   UNL     1      -3.119  16.636   4.811  0.00  0.00    +0.000 A 
ATOM      6  C   UNL     1      -2.336  16.894   3.693  0.00  0.00    +0.000 A 
ENDROOT
BRANCH   1   8
ATOM      7  C   UNL     1       0.045  15.427   1.476  0.00  0.00    +0.000 C 
ATOM      8  O   UNL     1      -0.559  16.469   2.233  0.00  0.00    +0.000 OA
ENDBRANCH   1   8
BRANCH   6   9
ATOM      9  O   UNL     1      -2.665  17.965   2.906  0.00  0.00    +0.000 OA
ATOM     10  H   UNL     1      -2.621  18.736   3.504  0.00  0.00    +0.000 HD
ENDBRANCH   6   9
TORSDOF 2
ENDMDL
MODEL 4
REMARK VINA RESULT:    -3.341      2.055      3.175
REMARK INTER + INTRA:          -3.687
REMARK INTER:                  -3.634
REMARK INTRA:                  -0.052
REMARK UNBOUND:                -0.052
REMARK  Name = 
REMARK  3 active torsions:
REMARK  status: ('A' for Active; 'I' for Inactive)
REMARK    1  A    between atoms: C_1  and  O_2
REMARK    2  A    between atoms: O_2  and  C_3
REMARK    3  A    between atoms: C_8  and  O_9
REMARK                            x       y       z     vdW  Elec       q    Type
REMARK                         _______ _______ _______ _____ _____    ______ ____
ROOT
ATOM      1  C   UNL     1      -3.924  13.475  -5.536  0.00  0.00    +0.000 A 
ATOM      2  C   UNL     1      -4.685  12.810  -4.575  0.00  0.00    +0.000 A 
ATOM      3  C   UNL     1      -5.240  11.557  -4.867  0.00  0.00    +0.000 A 
ATOM      4  C   UNL     1      -5.039  10.967  -6.116  0.00  0.00    +0.000 A 
ATOM      5  C   UNL     1      -4.280  11.626  -7.081  0.00  0.00    +0.000 A 
ATOM      6  C   UNL     1      -3.733  12.867  -6.783  0.00  0.00    +0.000 A 
ENDROOT
BRANCH   1   8
ATOM      7  C   UNL     1      -2.239  14.769  -4.471  0.00  0.00    +0.000 C 
ATOM      8  O   UNL     1      -3.324  14.700  -5.390  0.00  0.00    +0.000 OA
ENDBRANCH   1   8
BRANCH   6   9
ATOM      9  O   UNL     1      -2.991  13.495  -7.748  0.00  0.00    +0.000 OA
ATOM     10  H   UNL     1      -3.602  13.602  -8.501  0.00  0.00    +0.000 HD
ENDBRANCH   6   9
TORSDOF 2
ENDMDL
MODEL 5
REMARK VINA RESULT:    -3.302      1.677      2.612
REMARK INTER + INTRA:          -3.644
REMARK INTER:                  -3.592
REMARK INTRA:                  -0.052
REMARK UNBOUND:                -0.052
REMARK  Name = 
REMARK  3 active torsions:
REMARK  status: ('A' for Active; 'I' for Inactive)
REMARK    1  A    between atoms: C_1  and  O_2
REMARK    2  A    between atoms: O_2  and  C_3
REMARK    3  A    between atoms: C_8  and  O_9
REMARK                            x       y       z     vdW  Elec       q    Type
REMARK                         _______ _______ _______ _____ _____    ______ ____
ROOT
ATOM      1  C   UNL     1      -4.675  13.284  -6.705  0.00  0.00    +0.000 A 
ATOM      2  C   UNL     1      -5.240  14.472  -6.244  0.00  0.00    +0.000 A 
ATOM      3  C   UNL     1      -4.639  15.171  -5.190  0.00  0.00    +0.000 A 
ATOM      4  C   UNL     1      -3.474  14.686  -4.593  0.00  0.00    +0.000 A 
ATOM      5  C   UNL     1      -2.902  13.500  -5.048  0.00  0.00    +0.000 A 
ATOM      6  C   UNL     1      -3.506  12.813  -6.094  0.00  0.00    +0.000 A 
ENDROOT
BRANCH   1   8
ATOM      7  C   UNL     1      -5.219  13.101  -9.011  0.00  0.00    +0.000 C 
ATOM      8  O   UNL     1      -5.153  12.500  -7.724  0.00  0.00    +0.000 OA
ENDBRANCH   1   8
BRANCH   6   9
ATOM      9  O   UNL     1      -2.926  11.650  -6.524  0.00  0.00    +0.000 OA
ATOM     10  H   UNL     1      -3.641  10.987  -6.487  0.00  0.00    +0.000 HD
ENDBRANCH   6   9
TORSDOF 2
ENDMDL
MODEL 6
REMARK VINA RESULT:    -3.302      1.465      2.935
REMARK INTER + INTRA:          -3.644
REMARK INTER:                  -3.599
REMARK INTRA:                  -0.044
REMARK UNBOUND:                -0.052
REMARK  Name = 
REMARK  3 active torsions:
REMARK  status: ('A' for Active; 'I' for Inactive)
REMARK    1  A    between atoms: C_1  and  O_2
REMARK    2  A    between atoms: O_2  and  C_3
REMARK    3  A    between atoms: C_8  and  O_9
REMARK                            x       y       z     vdW  Elec       q    Type
REMARK                         _______ _______ _______ _____ _____    ______ ____
ROOT
ATOM      1  C   UNL     1      -3.705  13.495  -6.719  0.00  0.00    +0.000 A 
ATOM      2  C   UNL     1      -3.707  13.874  -5.377  0.00  0.00    +0.000 A 
ATOM      3  C   UNL     1      -4.473  13.157  -4.449  0.00  0.00    +0.000 A 
ATOM      4  C   UNL     1      -5.238  12.063  -4.858  0.00  0.00    +0.000 A 
ATOM      5  C   UNL     1      -5.240  11.678  -6.197  0.00  0.00    +0.000 A 
ATOM      6  C   UNL     1      -4.478  12.395  -7.110  0.00  0.00    +0.000 A 
ENDROOT
BRANCH   1   8
ATOM      7  C   UNL     1      -2.956  15.524  -7.704  0.00  0.00    +0.000 C 
ATOM      8  O   UNL     1      -3.006  14.103  -7.732  0.00  0.00    +0.000 OA
ENDBRANCH   1   8
BRANCH   6   9
ATOM      9  O   UNL     1      -4.496  11.998  -8.420  0.00  0.00    +0.000 OA
ATOM     10  H   UNL     1      -3.857  11.262  -8.466  0.00  0.00    +0.000 HD
ENDBRANCH   6   9
TORSDOF 2
ENDMDL
MODEL 7
REMARK VINA RESULT:    -3.250      2.132      3.310
REMARK INTER + INTRA:          -3.587
REMARK INTER:                  -3.545
REMARK INTRA:                  -0.043
REMARK UNBOUND:                -0.052
REMARK  Name = 
REMARK  3 active torsions:
REMARK  status: ('A' for Active; 'I' for Inactive)
REMARK    1  A    between atoms: C_1  and  O_2
REMARK    2  A    between atoms: O_2  and  C_3
REMARK    3  A    between atoms: C_8  and  O_9
REMARK                            x       y       z     vdW  Elec       q    Type
REMARK                         _______ _______ _______ _____ _____    ______ ____
ROOT
ATOM      1  C   UNL     1      -3.227  13.991  -5.514  0.00  0.00    +0.000 A 
ATOM      2  C   UNL     1      -4.000  15.122  -5.772  0.00  0.00    +0.000 A 
ATOM      3  C   UNL     1      -5.005  15.076  -6.746  0.00  0.00    +0.000 A 
ATOM      4  C   UNL     1      -5.240  13.902  -7.465  0.00  0.00    +0.000 A 
ATOM      5  C   UNL     1      -4.472  12.768  -7.213  0.00  0.00    +0.000 A 
ATOM      6  C   UNL     1      -3.477  12.823  -6.245  0.00  0.00    +0.000 A 
ENDROOT
BRANCH   1   8
ATOM      7  C   UNL     1      -2.385  14.618  -3.383  0.00  0.00    +0.000 C 
ATOM      8  O   UNL     1      -2.213  13.894  -4.595  0.00  0.00    +0.000 OA
ENDBRANCH   1   8
BRANCH   6   9
ATOM      9  O   UNL     1      -2.735  11.696  -6.016  0.00  0.00    +0.000 OA
ATOM     10  H   UNL     1      -3.328  10.956  -6.248  0.00  0.00    +0.000 HD
ENDBRANCH   6   9
TORSDOF 2
ENDMDL
MODEL 8
REMARK VINA RESULT:    -3.240     11.485     12.558
REMARK INTER + INTRA:          -3.576
REMARK INTER:                  -3.524
REMARK INTRA:                  -0.052
REMARK UNBOUND:                -0.052
REMARK  Name = 
REMARK  3 active torsions:
REMARK  status: ('A' for Active; 'I' for Inactive)
REMARK    1  A    between atoms: C_1  and  O_2
REMARK    2  A    between atoms: O_2  and  C_3
REMARK    3  A    between atoms: C_8  and  O_9
REMARK                            x       y       z     vdW  Elec       q    Type
REMARK                         _______ _______ _______ _____ _____    ______ ____
ROOT
ATOM      1  C   UNL     1      -2.693  16.960   4.099  0.00  0.00    +0.000 A 
ATOM      2  C   UNL     1      -1.619  16.568   3.302  0.00  0.00    +0.000 A 
ATOM      3  C   UNL     1      -0.859  15.445   3.653  0.00  0.00    +0.000 A 
ATOM      4  C   UNL     1      -1.169  14.712   4.800  0.00  0.00    +0.000 A 
ATOM      5  C   UNL     1      -2.241  15.097   5.602  0.00  0.00    +0.000 A 
ATOM      6  C   UNL     1      -2.989  16.212   5.246  0.00  0.00    +0.000 A 
ENDROOT
BRANCH   1   8
ATOM      7  C   UNL     1      -2.943  19.322   4.050  0.00  0.00    +0.000 C 
ATOM      8  O   UNL     1      -3.519  18.033   3.878  0.00  0.00    +0.000 OA
ENDBRANCH   1   8
BRANCH   6   9
ATOM      9  O   UNL     1      -4.038  16.571   6.050  0.00  0.00    +0.000 OA
ATOM     10  H   UNL     1      -3.903  17.522   6.224  0.00  0.00    +0.000 HD
ENDBRANCH   6   9
TORSDOF 2
ENDMDL
MODEL 9
REMARK VINA RESULT:    -1.316      1.619      1.898
REMARK INTER + INTRA:          -1.484
REMARK INTER:                  -1.444
REMARK INTRA:                  -0.040
REMARK UNBOUND:                -0.052
REMARK  Name = 
REMARK  3 active torsions:
REMARK  status: ('A' for Active; 'I' for Inactive)
REMARK    1  A    between atoms: C_1  and  O_2
REMARK    2  A    between atoms: O_2  and  C_3
REMARK    3  A    between atoms: C_8  and  O_9
REMARK                            x       y       z     vdW  Elec       q    Type
REMARK                         _______ _______ _______ _____ _____    ______ ____
ROOT
ATOM      1  C   UNL     1      -4.655  12.457  -5.615  0.00  0.00    +0.000 A 
ATOM      2  C   UNL     1      -5.235  13.010  -4.473  0.00  0.00    +0.000 A 
ATOM      3  C   UNL     1      -4.537  13.969  -3.729  0.00  0.00    +0.000 A 
ATOM      4  C   UNL     1      -3.261  14.378  -4.120  0.00  0.00    +0.000 A 
ATOM      5  C   UNL     1      -2.675  13.831  -5.259  0.00  0.00    +0.000 A 
ATOM      6  C   UNL     1      -3.375  12.880  -5.992  0.00  0.00    +0.000 A 
ENDROOT
BRANCH   1   8
ATOM      7  C   UNL     1      -5.240  10.178  -5.945  0.00  0.00    +0.000 C 
ATOM      8  O   UNL     1      -5.219  11.513  -6.435  0.00  0.00    +0.000 OA
ENDBRANCH   1   8
BRANCH   6   9
ATOM      9  O   UNL     1      -2.778  12.357  -7.108  0.00  0.00    +0.000 OA
ATOM     10  H   UNL     1      -2.311  13.110  -7.516  0.00  0.00    +0.000 HD
ENDBRANCH   6   9
TORSDOF 2
ENDMDL
