MODEL 1
REMARK VINA RESULT:    -4.575      0.000      0.000
REMARK INTER + INTRA:          -6.522
REMARK INTER:                  -6.180
REMARK INTRA:                  -0.342
REMARK UNBOUND:                -0.342
REMARK  Name = 
REMARK  10 active torsions:
REMARK  status: ('A' for Active; 'I' for Inactive)
REMARK    1  A    between atoms: C_1  and  C_2
REMARK    2  A    between atoms: C_5  and  N_8
REMARK    3  A    between atoms: N_8  and  C_9
REMARK    4  A    between atoms: N_8  and  C_13
REMARK    5  A    between atoms: C_9  and  C_10
REMARK    6  A    between atoms: C_10  and  C_11
REMARK    7  A    between atoms: C_10  and  O_12
REMARK    8  A    between atoms: C_13  and  C_14
REMARK    9  A    between atoms: C_14  and  C_15
REMARK   10  A    between atoms: C_14  and  O_16
REMARK                            x       y       z     vdW  Elec       q    Type
REMARK                         _______ _______ _______ _____ _____    ______ ____
ROOT
ATOM      1  N   UNL     1      -4.014  13.041  -6.218  0.00  0.00    +0.000 N 
ENDROOT
BRANCH   1   6
ATOM      2  C   UNL     1      -1.883  16.210  -1.889  0.00  0.00    +0.000 C 
ATOM      3  C   UNL     1      -2.450  15.407  -3.019  0.00  0.00    +0.000 A 
ATOM      4  C   UNL     1      -3.588  14.628  -2.842  0.00  0.00    +0.000 A 
ATOM      5  C   UNL     1      -4.097  13.853  -3.897  0.00  0.00    +0.000 A 
ATOM      6  C   UNL     1      -3.489  13.800  -5.164  0.00  0.00    +0.000 A 
ATOM      7  C   UNL     1      -2.342  14.602  -5.309  0.00  0.00    +0.000 A 
ATOM      8  C   UNL     1      -1.823  15.382  -4.262  0.00  0.00    +0.000 A 
ENDBRANCH   1   6
BRANCH   1   9
ATOM      9  C   UNL     1      -5.233  13.497  -6.928  0.00  0.00    +0.000 C 
BRANCH   9  10
ATOM     10  C   UNL     1      -5.011  13.672  -8.450  0.00  0.00    +0.000 C 
ATOM     11  C   UNL     1      -3.729  14.448  -8.729  0.00  0.00    +0.000 C 
BRANCH  10  12
ATOM     12  O   UNL     1      -4.912  12.399  -9.105  0.00  0.00    +0.000 OA
ATOM     13  H   UNL     1      -4.725  12.558 -10.045  0.00  0.00    +0.000 HD
ENDBRANCH  10  12
ENDBRANCH   9  10
ENDBRANCH   1   9
BRANCH   1  14
ATOM     14  C   UNL     1      -3.731  11.587  -6.333  0.00  0.00    +0.000 C 
BRANCH  14  15
ATOM     15  C   UNL     1      -4.968  10.722  -5.988  0.00  0.00    +0.000 C 
ATOM     16  C   UNL     1      -4.830   9.272  -6.437  0.00  0.00    +0.000 C 
BRANCH  15  17
ATOM     17  O   UNL     1      -5.240  10.727  -4.588  0.00  0.00    +0.000 OA
ATOM     18  H   UNL     1      -4.714   9.986  -4.225  0.00  0.00    +0.000 HD
ENDBRANCH  15  17
ENDBRANCH  14  15
ENDBRANCH   1  14
TORSDOF 7
ENDMDL
MODEL 2
REMARK VINA RESULT:    -4.540      2.771      4.297
REMARK INTER + INTRA:          -6.474
REMARK INTER:                  -5.986
REMARK INTRA:                  -0.488
REMARK UNBOUND:                -0.342
REMARK  Name = 
REMARK  10 active torsions:
REMARK  status: ('A' for Active; 'I' for Inactive)
REMARK    1  A    between atoms: C_1  and  C_2
REMARK    2  A    between atoms: C_5  and  N_8
REMARK    3  A    between atoms: N_8  and  C_9
REMARK    4  A    between atoms: N_8  and  C_13
REMARK    5  A    between atoms: C_9  and  C_10
REMARK    6  A    between atoms: C_10  and  C_11
REMARK    7  A    between atoms: C_10  and  O_12
REMARK    8  A    between atoms: C_13  and  C_14
REMARK    9  A    between atoms: C_14  and  C_15
REMARK   10  A    between atoms: C_14  and  O_16
REMARK                            x       y       z     vdW  Elec       q    Type
REMARK                         _______ _______ _______ _____ _____    ______ ____
ROOT
ATOM      1  N   UNL     1      -3.316  15.236  -5.356  0.00  0.00    +0.000 N 
ENDROOT
BRANCH   1   6
ATOM      2  C   UNL     1       1.794  17.562  -6.702  0.00  0.00    +0.000 C 
ATOM      3  C   UNL     1       0.460  16.980  -6.345  0.00  0.00    +0.000 A 
ATOM      4  C   UNL     1       0.228  16.445  -5.083  0.00  0.00    +0.000 A 
ATOM      5  C   UNL     1      -1.015  15.874  -4.764  0.00  0.00    +0.000 A 
ATOM      6  C   UNL     1      -2.072  15.788  -5.687  0.00  0.00    +0.000 A 
ATOM      7  C   UNL     1      -1.804  16.342  -6.953  0.00  0.00    +0.000 A 
ATOM      8  C   UNL     1      -0.566  16.917  -7.284  0.00  0.00    +0.000 A 
ENDBRANCH   1   6
BRANCH   1   9
ATOM      9  C   UNL     1      -3.930  14.209  -6.233  0.00  0.00    +0.000 C 
BRANCH   9  10
ATOM     10  C   UNL     1      -3.573  12.764  -5.805  0.00  0.00    +0.000 C 
ATOM     11  C   UNL     1      -4.824  11.988  -5.409  0.00  0.00    +0.000 C 
BRANCH  10  12
ATOM     12  O   UNL     1      -2.931  12.055  -6.874  0.00  0.00    +0.000 OA
ATOM     13  H   UNL     1      -1.971  12.093  -6.726  0.00  0.00    +0.000 HD
ENDBRANCH  10  12
ENDBRANCH   9  10
ENDBRANCH   1   9
BRANCH   1  14
ATOM     14  C   UNL     1      -4.271  15.961  -4.480  0.00  0.00    +0.000 C 
BRANCH  14  15
ATOM     15  C   UNL     1      -4.636  15.148  -3.214  0.00  0.00    +0.000 C 
ATOM     16  C   UNL     1      -3.445  14.414  -2.610  0.00  0.00    +0.000 C 
BRANCH  15  17
ATOM     17  O   UNL     1      -5.205  15.977  -2.202  0.00  0.00    +0.000 OA
ATOM     18  H   UNL     1      -6.166  15.980  -2.388  0.00  0.00    +0.000 HD
ENDBRANCH  15  17
ENDBRANCH  14  15
ENDBRANCH   1  14
TORSDOF 7
ENDMDL
MODEL 3
REMARK VINA RESULT:    -4.357      1.310      3.202
REMARK INTER + INTRA:          -6.228
REMARK INTER:                  -5.632
REMARK INTRA:                  -0.596
REMARK UNBOUND:                -0.342
REMARK  Name = 
REMARK  10 active torsions:
REMARK  status: ('A' for Active; 'I' for Inactive)
REMARK    1  A    between atoms: C_1  and  C_2
REMARK    2  A    between atoms: C_5  and  N_8
REMARK    3  A    between atoms: N_8  and  C_9
REMARK    4  A    between atoms: N_8  and  C_13
REMARK    5  A    between atoms: C_9  and  C_10
REMARK    6  A    between atoms: C_10  and  C_11
REMARK    7  A    between atoms: C_10  and  O_12
REMARK    8  A    between atoms: C_13  and  C_14
REMARK    9  A    between atoms: C_14  and  C_15
REMARK   10  A    between atoms: C_14  and  O_16
REMARK                            x       y       z     vdW  Elec       q    Type
REMARK                         _______ _______ _______ _____ _____    ______ ____
ROOT
ATOM      1  N   UNL     1      -4.852  13.885  -6.568  0.00  0.00    +0.000 N 
ENDROOT
BRANCH   1   6
ATOM      2  C   UNL     1      -1.848  15.355  -1.862  0.00  0.00    +0.000 C 
ATOM      3  C   UNL     1      -2.635  14.998  -3.085  0.00  0.00    +0.000 A 
ATOM      4  C   UNL     1      -3.954  14.568  -2.986  0.00  0.00    +0.000 A 
ATOM      5  C   UNL     1      -4.677  14.205  -4.134  0.00  0.00    +0.000 A 
ATOM      6  C   UNL     1      -4.119  14.229  -5.425  0.00  0.00    +0.000 A 
ATOM      7  C   UNL     1      -2.784  14.671  -5.488  0.00  0.00    +0.000 A 
ATOM      8  C   UNL     1      -2.051  15.039  -4.348  0.00  0.00    +0.000 A 
ENDBRANCH   1   6
BRANCH   1   9
ATOM      9  C   UNL     1      -5.240  12.473  -6.804  0.00  0.00    +0.000 C 
BRANCH   9  10
ATOM     10  C   UNL     1      -4.214  11.465  -6.231  0.00  0.00    +0.000 C 
ATOM     11  C   UNL     1      -4.763  10.044  -6.276  0.00  0.00    +0.000 C 
BRANCH  10  12
ATOM     12  O   UNL     1      -2.991  11.492  -6.980  0.00  0.00    +0.000 OA
ATOM     13  H   UNL     1      -2.269  11.713  -6.369  0.00  0.00    +0.000 HD
ENDBRANCH  10  12
ENDBRANCH   9  10
ENDBRANCH   1   9
BRANCH   1  14
ATOM     14  C   UNL     1      -4.827  14.738  -7.784  0.00  0.00    +0.000 C 
BRANCH  14  15
ATOM     15  C   UNL     1      -4.180  14.016  -8.990  0.00  0.00    +0.000 C 
ATOM     16  C   UNL     1      -4.493  14.681 -10.325  0.00  0.00    +0.000 C 
BRANCH  15  17
ATOM     17  O   UNL     1      -2.762  13.935  -8.859  0.00  0.00    +0.000 OA
ATOM     18  H   UNL     1      -2.589  13.028  -8.535  0.00  0.00    +0.000 HD
ENDBRANCH  15  17
ENDBRANCH  14  15
ENDBRANCH   1  14
TORSDOF 7
ENDMDL
MODEL 4
REMARK VINA RESULT:    -4.295      2.069      4.189
REMARK INTER + INTRA:          -6.143
REMARK INTER:                  -5.455
REMARK INTRA:                  -0.688
REMARK UNBOUND:                -0.342
REMARK  Name = 
REMARK  10 active torsions:
REMARK  status: ('A' for Active; 'I' for Inactive)
REMARK    1  A    between atoms: C_1  and  C_2
REMARK    2  A    between atoms: C_5  and  N_8
REMARK    3  A    between atoms: N_8  and  C_9
REMARK    4  A    between atoms: N_8  and  C_13
REMARK    5  A    between atoms: C_9  and  C_10
REMARK    6  A    between atoms: C_10  and  C_11
REMARK    7  A    between atoms: C_10  and  O_12
REMARK    8  A    between atoms: C_13  and  C_14
REMARK    9  A    between atoms: C_14  and  C_15
REMARK   10  A    between atoms: C_14  and  O_16
REMARK                            x       y       z     vdW  Elec       q    Type
REMARK                         _______ _______ _______ _____ _____    ______ ____
ROOT
ATOM      1  N   UNL     1      -4.730  13.604  -6.216  0.00  0.00    +0.000 N 
ENDROOT
BRANCH   1   6
ATOM      2  C   UNL     1      -2.738  17.780  -9.669  0.00  0.00    +0.000 C 
ATOM      3  C   UNL     1      -3.271  16.690  -8.791  0.00  0.00    +0.000 A 
ATOM      4  C   UNL     1      -4.296  16.940  -7.884  0.00  0.00    +0.000 A 
ATOM      5  C   UNL     1      -4.771  15.922  -7.042  0.00  0.00    +0.000 A 
ATOM      6  C   UNL     1      -4.238  14.620  -7.045  0.00  0.00    +0.000 A 
ATOM      7  C   UNL     1      -3.206  14.403  -7.976  0.00  0.00    +0.000 A 
ATOM      8  C   UNL     1      -2.722  15.412  -8.825  0.00  0.00    +0.000 A 
ENDBRANCH   1   6
BRANCH   1   9
ATOM      9  C   UNL     1      -4.408  13.604  -4.769  0.00  0.00    +0.000 C 
BRANCH   9  10
ATOM     10  C   UNL     1      -2.993  14.158  -4.469  0.00  0.00    +0.000 C 
ATOM     11  C   UNL     1      -2.866  14.564  -3.006  0.00  0.00    +0.000 C 
BRANCH  10  12
ATOM     12  O   UNL     1      -1.986  13.175  -4.747  0.00  0.00    +0.000 OA
ATOM     13  H   UNL     1      -2.287  12.639  -5.500  0.00  0.00    +0.000 HD
ENDBRANCH  10  12
ENDBRANCH   9  10
ENDBRANCH   1   9
BRANCH   1  14
ATOM     14  C   UNL     1      -5.120  12.282  -6.770  0.00  0.00    +0.000 C 
BRANCH  14  15
ATOM     15  C   UNL     1      -4.287  11.127  -6.164  0.00  0.00    +0.000 C 
ATOM     16  C   UNL     1      -4.912   9.755  -6.388  0.00  0.00    +0.000 C 
BRANCH  15  17
ATOM     17  O   UNL     1      -2.962  11.099  -6.692  0.00  0.00    +0.000 OA
ATOM     18  H   UNL     1      -2.619  10.211  -6.468  0.00  0.00    +0.000 HD
ENDBRANCH  15  17
ENDBRANCH  14  15
ENDBRANCH   1  14
TORSDOF 7
ENDMDL
MODEL 5
REMARK VINA RESULT:    -4.279      1.945      5.132
REMARK INTER + INTRA:          -6.122
REMARK INTER:                  -5.516
REMARK INTRA:                  -0.606
REMARK UNBOUND:                -0.342
REMARK  Name = 
REMARK  10 active torsions:
REMARK  status: ('A' for Active; 'I' for Inactive)
REMARK    1  A    between atoms: C_1  and  C_2
REMARK    2  A    between atoms: C_5  and  N_8
REMARK    3  A    between atoms: N_8  and  C_9
REMARK    4  A    between atoms: N_8  and  C_13
REMARK    5  A    between atoms: C_9  and  C_10
REMARK    6  A    between atoms: C_10  and  C_11
REMARK    7  A    between atoms: C_10  and  O_12
REMARK    8  A    between atoms: C_13  and  C_14
REMARK    9  A    between atoms: C_14  and  C_15
REMARK   10  A    between atoms: C_14  and  O_16
REMARK                            x       y       z     vdW  Elec       q    Type
REMARK                         _______ _______ _______ _____ _____    ______ ____
ROOT
ATOM      1  N   UNL     1      -4.078  14.033  -6.415  0.00  0.00    +0.000 N 
ENDROOT
BRANCH   1   6
ATOM      2  C   UNL     1      -2.634  15.158 -11.890  0.00  0.00    +0.000 C 
ATOM      3  C   UNL     1      -2.995  14.845 -10.470  0.00  0.00    +0.000 A 
ATOM      4  C   UNL     1      -4.138  14.112 -10.168  0.00  0.00    +0.000 A 
ATOM      5  C   UNL     1      -4.487  13.848  -8.834  0.00  0.00    +0.000 A 
ATOM      6  C   UNL     1      -3.734  14.317  -7.743  0.00  0.00    +0.000 A 
ATOM      7  C   UNL     1      -2.585  15.053  -8.085  0.00  0.00    +0.000 A 
ATOM      8  C   UNL     1      -2.223  15.323  -9.415  0.00  0.00    +0.000 A 
ENDBRANCH   1   6
BRANCH   1   9
ATOM      9  C   UNL     1      -5.004  12.916  -6.109  0.00  0.00    +0.000 C 
BRANCH   9  10
ATOM     10  C   UNL     1      -4.265  11.581  -5.842  0.00  0.00    +0.000 C 
ATOM     11  C   UNL     1      -5.052  10.402  -6.401  0.00  0.00    +0.000 C 
BRANCH  10  12
ATOM     12  O   UNL     1      -2.968  11.579  -6.453  0.00  0.00    +0.000 OA
ATOM     13  H   UNL     1      -2.363  12.075  -5.877  0.00  0.00    +0.000 HD
ENDBRANCH  10  12
ENDBRANCH   9  10
ENDBRANCH   1   9
BRANCH   1  14
ATOM     14  C   UNL     1      -3.982  15.071  -5.357  0.00  0.00    +0.000 C 
BRANCH  14  15
ATOM     15  C   UNL     1      -2.904  14.731  -4.300  0.00  0.00    +0.000 C 
ATOM     16  C   UNL     1      -3.490  14.200  -2.996  0.00  0.00    +0.000 C 
BRANCH  15  17
ATOM     17  O   UNL     1      -1.972  13.768  -4.789  0.00  0.00    +0.000 OA
ATOM     18  H   UNL     1      -1.220  14.295  -5.128  0.00  0.00    +0.000 HD
ENDBRANCH  15  17
ENDBRANCH  14  15
ENDBRANCH   1  14
TORSDOF 7
ENDMDL
MODEL 6
REMARK VINA RESULT:    -4.225      2.327      4.939
REMARK INTER + INTRA:          -6.049
REMARK INTER:                  -5.307
REMARK INTRA:                  -0.742
REMARK UNBOUND:                -0.342
REMARK  Name = 
REMARK  10 active torsions:
REMARK  status: ('A' for Active; 'I' for Inactive)
REMARK    1  A    between atoms: C_1  and  C_2
REMARK    2  A    between atoms: C_5  and  N_8
REMARK    3  A    between atoms: N_8  and  C_9
REMARK    4  A    between atoms: N_8  and  C_13
REMARK    5  A    between atoms: C_9  and  C_10
REMARK    6  A    between atoms: C_10  and  C_11
REMARK    7  A    between atoms: C_10  and  O_12
REMARK    8  A    between atoms: C_13  and  C_14
REMARK    9  A    between atoms: C_14  and  C_15
REMARK   10  A    between atoms: C_14  and  O_16
REMARK                            x       y       z     vdW  Elec       q    Type
REMARK                         _______ _______ _______ _____ _____    ______ ____
ROOT
ATOM      1  N   UNL     1      -3.682  14.648  -6.090  0.00  0.00    +0.000 N 
ENDROOT
BRANCH   1   6
ATOM      2  C   UNL     1      -0.889  16.365 -10.842  0.00  0.00    +0.000 C 
ATOM      3  C   UNL     1      -1.632  15.936  -9.614  0.00  0.00    +0.000 A 
ATOM      4  C   UNL     1      -1.381  16.532  -8.382  0.00  0.00    +0.000 A 
ATOM      5  C   UNL     1      -2.059  16.105  -7.229  0.00  0.00    +0.000 A 
ATOM      6  C   UNL     1      -2.996  15.056  -7.241  0.00  0.00    +0.000 A 
ATOM      7  C   UNL     1      -3.226  14.478  -8.503  0.00  0.00    +0.000 A 
ATOM      8  C   UNL     1      -2.557  14.897  -9.665  0.00  0.00    +0.000 A 
ENDBRANCH   1   6
BRANCH   1   9
ATOM      9  C   UNL     1      -4.748  13.622  -6.185  0.00  0.00    +0.000 C 
BRANCH   9  10
ATOM     10  C   UNL     1      -4.311  12.249  -5.618  0.00  0.00    +0.000 C 
ATOM     11  C   UNL     1      -5.125  11.119  -6.236  0.00  0.00    +0.000 C 
BRANCH  10  12
ATOM     12  O   UNL     1      -2.925  11.998  -5.889  0.00  0.00    +0.000 OA
ATOM     13  H   UNL     1      -2.846  11.098  -6.248  0.00  0.00    +0.000 HD
ENDBRANCH  10  12
ENDBRANCH   9  10
ENDBRANCH   1   9
BRANCH   1  14
ATOM     14  C   UNL     1      -3.763  15.523  -4.892  0.00  0.00    +0.000 C 
BRANCH  14  15
ATOM     15  C   UNL     1      -2.852  15.027  -3.744  0.00  0.00    +0.000 C 
ATOM     16  C   UNL     1      -3.617  14.313  -2.637  0.00  0.00    +0.000 C 
BRANCH  15  17
ATOM     17  O   UNL     1      -1.837  14.144  -4.220  0.00  0.00    +0.000 OA
ATOM     18  H   UNL     1      -2.219  13.727  -5.019  0.00  0.00    +0.000 HD
ENDBRANCH  15  17
ENDBRANCH  14  15
ENDBRANCH   1  14
TORSDOF 7
ENDMDL
MODEL 7
REMARK VINA RESULT:    -4.211      2.838      4.640
REMARK INTER + INTRA:          -6.029
REMARK INTER:                  -5.544
REMARK INTRA:                  -0.486
REMARK UNBOUND:                -0.342
REMARK  Name = 
REMARK  10 active torsions:
REMARK  status: ('A' for Active; 'I' for Inactive)
REMARK    1  A    between atoms: C_1  and  C_2
REMARK    2  A    between atoms: C_5  and  N_8
REMARK    3  A    between atoms: N_8  and  C_9
REMARK    4  A    between atoms: N_8  and  C_13
REMARK    5  A    between atoms: C_9  and  C_10
REMARK    6  A    between atoms: C_10  and  C_11
REMARK    7  A    between atoms: C_10  and  O_12
REMARK    8  A    between atoms: C_13  and  C_14
REMARK    9  A    between atoms: C_14  and  C_15
REMARK   10  A    between atoms: C_14  and  O_16
REMARK                            x       y       z     vdW  Elec       q    Type
REMARK                         _______ _______ _______ _____ _____    ______ ____
ROOT
ATOM      1  N   UNL     1      -2.582  15.175  -4.957  0.00  0.00    +0.000 N 
ENDROOT
BRANCH   1   6
ATOM      2  C   UNL     1       1.921  18.077  -7.109  0.00  0.00    +0.000 C 
ATOM      3  C   UNL     1       0.763  17.302  -6.558  0.00  0.00    +0.000 A 
ATOM      4  C   UNL     1      -0.370  17.066  -7.330  0.00  0.00    +0.000 A 
ATOM      5  C   UNL     1      -1.465  16.366  -6.798  0.00  0.00    +0.000 A 
ATOM      6  C   UNL     1      -1.494  15.890  -5.475  0.00  0.00    +0.000 A 
ATOM      7  C   UNL     1      -0.331  16.145  -4.725  0.00  0.00    +0.000 A 
ATOM      8  C   UNL     1       0.771  16.843  -5.245  0.00  0.00    +0.000 A 
ENDBRANCH   1   6
BRANCH   1   9
ATOM      9  C   UNL     1      -2.566  14.715  -3.548  0.00  0.00    +0.000 C 
BRANCH   9  10
ATOM     10  C   UNL     1      -3.585  15.469  -2.659  0.00  0.00    +0.000 C 
ATOM     11  C   UNL     1      -3.662  16.941  -3.047  0.00  0.00    +0.000 C 
BRANCH  10  12
ATOM     12  O   UNL     1      -4.898  14.906  -2.789  0.00  0.00    +0.000 OA
ATOM     13  H   UNL     1      -5.231  15.122  -3.676  0.00  0.00    +0.000 HD
ENDBRANCH  10  12
ENDBRANCH   9  10
ENDBRANCH   1   9
BRANCH   1  14
ATOM     14  C   UNL     1      -3.503  14.424  -5.849  0.00  0.00    +0.000 C 
BRANCH  14  15
ATOM     15  C   UNL     1      -3.460  12.900  -5.583  0.00  0.00    +0.000 C 
ATOM     16  C   UNL     1      -4.831  12.306  -5.283  0.00  0.00    +0.000 C 
BRANCH  15  17
ATOM     17  O   UNL     1      -2.901  12.188  -6.685  0.00  0.00    +0.000 OA
ATOM     18  H   UNL     1      -2.655  12.878  -7.333  0.00  0.00    +0.000 HD
ENDBRANCH  15  17
ENDBRANCH  14  15
ENDBRANCH   1  14
TORSDOF 7
ENDMDL
MODEL 8
REMARK VINA RESULT:    -4.151      1.695      5.176
REMARK INTER + INTRA:          -5.949
REMARK INTER:                  -5.320
REMARK INTRA:                  -0.628
REMARK UNBOUND:                -0.342
REMARK  Name = 
REMARK  10 active torsions:
REMARK  status: ('A' for Active; 'I' for Inactive)
REMARK    1  A    between atoms: C_1  and  C_2
REMARK    2  A    between atoms: C_5  and  N_8
REMARK    3  A    between atoms: N_8  and  C_9
REMARK    4  A    between atoms: N_8  and  C_13
REMARK    5  A    between atoms: C_9  and  C_10
REMARK    6  A    between atoms: C_10  and  C_11
REMARK    7  A    between atoms: C_10  and  O_12
REMARK    8  A    between atoms: C_13  and  C_14
REMARK    9  A    between atoms: C_14  and  C_15
REMARK   10  A    between atoms: C_14  and  O_16
REMARK                            x       y       z     vdW  Elec       q    Type
REMARK                         _______ _______ _______ _____ _____    ______ ____
ROOT
ATOM      1  N   UNL     1      -4.228  13.274  -6.886  0.00  0.00    +0.000 N 
ENDROOT
BRANCH   1   6
ATOM      2  C   UNL     1      -4.521  14.377 -12.546  0.00  0.00    +0.000 C 
ATOM      3  C   UNL     1      -4.427  14.074 -11.081  0.00  0.00    +0.000 A 
ATOM      4  C   UNL     1      -5.240  13.108 -10.498  0.00  0.00    +0.000 A 
ATOM      5  C   UNL     1      -5.169  12.849  -9.120  0.00  0.00    +0.000 A 
ATOM      6  C   UNL     1      -4.308  13.551  -8.257  0.00  0.00    +0.000 A 
ATOM      7  C   UNL     1      -3.499  14.519  -8.881  0.00  0.00    +0.000 A 
ATOM      8  C   UNL     1      -3.559  14.786 -10.259  0.00  0.00    +0.000 A 
ENDBRANCH   1   6
BRANCH   1   9
ATOM      9  C   UNL     1      -4.051  14.379  -5.914  0.00  0.00    +0.000 C 
BRANCH   9  10
ATOM     10  C   UNL     1      -3.125  13.997  -4.733  0.00  0.00    +0.000 C 
ATOM     11  C   UNL     1      -2.049  15.056  -4.520  0.00  0.00    +0.000 C 
BRANCH  10  12
ATOM     12  O   UNL     1      -3.871  13.869  -3.515  0.00  0.00    +0.000 OA
ATOM     13  H   UNL     1      -3.882  12.930  -3.266  0.00  0.00    +0.000 HD
ENDBRANCH  10  12
ENDBRANCH   9  10
ENDBRANCH   1   9
BRANCH   1  14
ATOM     14  C   UNL     1      -3.807  11.937  -6.395  0.00  0.00    +0.000 C 
BRANCH  14  15
ATOM     15  C   UNL     1      -5.011  11.073  -5.948  0.00  0.00    +0.000 C 
ATOM     16  C   UNL     1      -4.881   9.609  -6.351  0.00  0.00    +0.000 C 
BRANCH  15  17
ATOM     17  O   UNL     1      -5.203  11.127  -4.536  0.00  0.00    +0.000 OA
ATOM     18  H   UNL     1      -4.692  11.908  -4.241  0.00  0.00    +0.000 HD
ENDBRANCH  15  17
ENDBRANCH  14  15
ENDBRANCH   1  14
TORSDOF 7
ENDMDL
