MODEL 1
REMARK VINA RESULT:    -4.716      0.000      0.000
REMARK INTER + INTRA:          -5.167
REMARK INTER:                  -5.130
REMARK INTRA:                  -0.037
REMARK UNBOUND:                -0.037
REMARK  Name = 
REMARK  3 active torsions:
REMARK  status: ('A' for Active; 'I' for Inactive)
REMARK    1  A    between atoms: C_1  and  O_2
REMARK    2  A    between atoms: O_2  and  C_3
REMARK    3  A    between atoms: C_8  and  O_9
REMARK                            x       y       z     vdW  Elec       q    Type
REMARK                         _______ _______ _______ _____ _____    ______ ____
ROOT
ATOM      1  C   UNL     1      12.341   1.782   7.830  0.00  0.00    +0.000 A 
ATOM      2  C   UNL     1      12.640   1.935   9.183  0.00  0.00    +0.000 A 
ATOM      3  C   UNL     1      11.647   1.721  10.147  0.00  0.00    +0.000 A 
ATOM      4  C   UNL     1      10.354   1.357   9.764  0.00  0.00    +0.000 A 
ATOM      5  C   UNL     1      10.048   1.202   8.414  0.00  0.00    +0.000 A 
ATOM      6  C   UNL     1      11.039   1.416   7.464  0.00  0.00    +0.000 A 
ENDROOT
BRANCH   1   8
ATOM      7  C   UNL     1      14.150   0.916   6.556  0.00  0.00    +0.000 C 
ATOM      8  O   UNL     1      13.209   1.958   6.782  0.00  0.00    +0.000 OA
ENDBRANCH   1   8
BRANCH   6   9
ATOM      9  O   UNL     1      10.714   1.258   6.144  0.00  0.00    +0.000 OA
ATOM     10  H   UNL     1      11.488   0.813   5.749  0.00  0.00    +0.000 HD
ENDBRANCH   6   9
TORSDOF 2
ENDMDL
MODEL 2
REMARK VINA RESULT:    -4.537      2.424      3.842
REMARK INTER + INTRA:          -4.972
REMARK INTER:                  -4.920
REMARK INTRA:                  -0.052
REMARK UNBOUND:                -0.037
REMARK  Name = 
REMARK  3 active torsions:
REMARK  status: ('A' for Active; 'I' for Inactive)
REMARK    1  A    between atoms: C_1  and  O_2
REMARK    2  A    between atoms: O_2  and  C_3
REMARK    3  A    between atoms: C_8  and  O_9
REMARK                            x       y       z     vdW  Elec       q    Type
REMARK                         _______ _______ _______ _____ _____    ______ ____
ROOT
ATOM      1  C   UNL     1      12.482   0.524   8.999  0.00  0.00    +0.000 A 
ATOM      2  C   UNL     1      12.223   1.709   8.311  0.00  0.00    +0.000 A 
ATOM      3  C   UNL     1      12.832   1.947   7.073  0.00  0.00    +0.000 A 
ATOM      4  C   UNL     1      13.701   1.005   6.519  0.00  0.00    +0.000 A 
ATOM      5  C   UNL     1      13.965  -0.181   7.200  0.00  0.00    +0.000 A 
ATOM      6  C   UNL     1      13.356  -0.409   8.427  0.00  0.00    +0.000 A 
ENDROOT
BRANCH   1   8
ATOM      7  C   UNL     1      12.393   0.911  11.342  0.00  0.00    +0.000 C 
ATOM      8  O   UNL     1      11.959   0.161  10.214  0.00  0.00    +0.000 OA
ENDBRANCH   1   8
BRANCH   6   9
ATOM      9  O   UNL     1      13.631  -1.582   9.078  0.00  0.00    +0.000 OA
ATOM     10  H   UNL     1      12.794  -2.084   9.050  0.00  0.00    +0.000 HD
ENDBRANCH   6   9
TORSDOF 2
ENDMDL
MODEL 3
REMARK VINA RESULT:    -4.327      2.061      2.663
REMARK INTER + INTRA:          -4.744
REMARK INTER:                  -4.700
REMARK INTRA:                  -0.044
REMARK UNBOUND:                -0.037
REMARK  Name = 
REMARK  3 active torsions:
REMARK  status: ('A' for Active; 'I' for Inactive)
REMARK    1  A    between atoms: C_1  and  O_2
REMARK    2  A    between atoms: O_2  and  C_3
REMARK    3  A    between atoms: C_8  and  O_9
REMARK                            x       y       z     vdW  Elec       q    Type
REMARK                         _______ _______ _______ _____ _____    ______ ____
ROOT
ATOM      1  C   UNL     1      12.850   0.515   8.504  0.00  0.00    +0.000 A 
ATOM      2  C   UNL     1      12.239   1.720   8.846  0.00  0.00    +0.000 A 
ATOM      3  C   UNL     1      11.836   1.950  10.167  0.00  0.00    +0.000 A 
ATOM      4  C   UNL     1      12.040   0.978  11.149  0.00  0.00    +0.000 A 
ATOM      5  C   UNL     1      12.651  -0.229  10.815  0.00  0.00    +0.000 A 
ATOM      6  C   UNL     1      13.047  -0.448   9.502  0.00  0.00    +0.000 A 
ENDROOT
BRANCH   1   8
ATOM      7  C   UNL     1      13.896   1.182   6.477  0.00  0.00    +0.000 C 
ATOM      8  O   UNL     1      13.293   0.155   7.256  0.00  0.00    +0.000 OA
ENDBRANCH   1   8
BRANCH   6   9
ATOM      9  O   UNL     1      13.645  -1.642   9.198  0.00  0.00    +0.000 OA
ATOM     10  H   UNL     1      14.547  -1.402   8.912  0.00  0.00    +0.000 HD
ENDBRANCH   6   9
TORSDOF 2
ENDMDL
MODEL 4
REMARK VINA RESULT:    -4.311     13.149     13.450
REMARK INTER + INTRA:          -4.726
REMARK INTER:                  -4.673
REMARK INTRA:                  -0.053
REMARK UNBOUND:                -0.037
REMARK  Name = 
REMARK  3 active torsions:
REMARK  status: ('A' for Active; 'I' for Inactive)
REMARK    1  A    between atoms: C_1  and  O_2
REMARK    2  A    between atoms: O_2  and  C_3
REMARK    3  A    between atoms: C_8  and  O_9
REMARK                            x       y       z     vdW  Elec       q    Type
REMARK                         _______ _______ _______ _____ _____    ______ ____
ROOT
ATOM      1  C   UNL     1       4.255  -9.025   9.783  0.00  0.00    +0.000 A 
ATOM      2  C   UNL     1       3.291  -8.223  10.394  0.00  0.00    +0.000 A 
ATOM      3  C   UNL     1       3.291  -8.067  11.786  0.00  0.00    +0.000 A 
ATOM      4  C   UNL     1       4.251  -8.710  12.570  0.00  0.00    +0.000 A 
ATOM      5  C   UNL     1       5.217  -9.511  11.967  0.00  0.00    +0.000 A 
ATOM      6  C   UNL     1       5.209  -9.661  10.586  0.00  0.00    +0.000 A 
ENDROOT
BRANCH   1   8
ATOM      7  C   UNL     1       3.342 -10.041   7.839  0.00  0.00    +0.000 C 
ATOM      8  O   UNL     1       4.374  -9.267   8.438  0.00  0.00    +0.000 OA
ENDBRANCH   1   8
BRANCH   6   9
ATOM      9  O   UNL     1       6.169 -10.454  10.017  0.00  0.00    +0.000 OA
ATOM     10  H   UNL     1       6.234 -10.142   9.094  0.00  0.00    +0.000 HD
ENDBRANCH   6   9
TORSDOF 2
ENDMDL
MODEL 5
REMARK VINA RESULT:    -4.262      1.675      3.246
REMARK INTER + INTRA:          -4.673
REMARK INTER:                  -4.631
REMARK INTRA:                  -0.042
REMARK UNBOUND:                -0.037
REMARK  Name = 
REMARK  3 active torsions:
REMARK  status: ('A' for Active; 'I' for Inactive)
REMARK    1  A    between atoms: C_1  and  O_2
REMARK    2  A    between atoms: O_2  and  C_3
REMARK    3  A    between atoms: C_8  and  O_9
REMARK                            x       y       z     vdW  Elec       q    Type
REMARK                         _______ _______ _______ _____ _____    ______ ____
ROOT
ATOM      1  C   UNL     1      11.690   1.025   8.493  0.00  0.00    +0.000 A 
ATOM      2  C   UNL     1      12.457   0.089   9.185  0.00  0.00    +0.000 A 
ATOM      3  C   UNL     1      13.536  -0.539   8.549  0.00  0.00    +0.000 A 
ATOM      4  C   UNL     1      13.850  -0.235   7.223  0.00  0.00    +0.000 A 
ATOM      5  C   UNL     1      13.088   0.700   6.525  0.00  0.00    +0.000 A 
ATOM      6  C   UNL     1      12.020   1.317   7.164  0.00  0.00    +0.000 A 
ENDROOT
BRANCH   1   8
ATOM      7  C   UNL     1       9.804   1.030   9.939  0.00  0.00    +0.000 C 
ATOM      8  O   UNL     1      10.611   1.713   8.987  0.00  0.00    +0.000 OA
ENDBRANCH   1   8
BRANCH   6   9
ATOM      9  O   UNL     1      11.286   2.232   6.458  0.00  0.00    +0.000 OA
ATOM     10  H   UNL     1      10.451   2.319   6.957  0.00  0.00    +0.000 HD
ENDBRANCH   6   9
TORSDOF 2
ENDMDL
MODEL 6
REMARK VINA RESULT:    -4.033      2.269      4.058
REMARK INTER + INTRA:          -4.424
REMARK INTER:                  -4.372
REMARK INTRA:                  -0.052
REMARK UNBOUND:                -0.037
REMARK  Name = 
REMARK  3 active torsions:
REMARK  status: ('A' for Active; 'I' for Inactive)
REMARK    1  A    between atoms: C_1  and  O_2
REMARK    2  A    between atoms: O_2  and  C_3
REMARK    3  A    between atoms: C_8  and  O_9
REMARK                            x       y       z     vdW  Elec       q    Type
REMARK                         _______ _______ _______ _____ _____    ______ ____
ROOT
ATOM      1  C   UNL     1      10.854   1.267   9.658  0.00  0.00    +0.000 A 
ATOM      2  C   UNL     1      10.224   1.248   8.414  0.00  0.00    +0.000 A 
ATOM      3  C   UNL     1      10.962   1.505   7.252  0.00  0.00    +0.000 A 
ATOM      4  C   UNL     1      12.328   1.782   7.328  0.00  0.00    +0.000 A 
ATOM      5  C   UNL     1      12.965   1.802   8.567  0.00  0.00    +0.000 A 
ATOM      6  C   UNL     1      12.225   1.546   9.714  0.00  0.00    +0.000 A 
ENDROOT
BRANCH   1   8
ATOM      7  C   UNL     1       9.212   1.922  11.245  0.00  0.00    +0.000 C 
ATOM      8  O   UNL     1      10.259   1.035  10.872  0.00  0.00    +0.000 OA
ENDBRANCH   1   8
BRANCH   6   9
ATOM      9  O   UNL     1      12.873   1.571  10.920  0.00  0.00    +0.000 OA
ATOM     10  H   UNL     1      12.283   2.078  11.509  0.00  0.00    +0.000 HD
ENDBRANCH   6   9
TORSDOF 2
ENDMDL
MODEL 7
REMARK VINA RESULT:    -3.984      2.447      3.730
REMARK INTER + INTRA:          -4.371
REMARK INTER:                  -4.320
REMARK INTRA:                  -0.051
REMARK UNBOUND:                -0.037
REMARK  Name = 
REMARK  3 active torsions:
REMARK  status: ('A' for Active; 'I' for Inactive)
REMARK    1  A    between atoms: C_1  and  O_2
REMARK    2  A    between atoms: O_2  and  C_3
REMARK    3  A    between atoms: C_8  and  O_9
REMARK                            x       y       z     vdW  Elec       q    Type
REMARK                         _______ _______ _______ _____ _____    ______ ____
ROOT
ATOM      1  C   UNL     1      12.767   0.084   9.140  0.00  0.00    +0.000 A 
ATOM      2  C   UNL     1      13.435  -0.597   8.123  0.00  0.00    +0.000 A 
ATOM      3  C   UNL     1      13.846   0.090   6.974  0.00  0.00    +0.000 A 
ATOM      4  C   UNL     1      13.592   1.456   6.837  0.00  0.00    +0.000 A 
ATOM      5  C   UNL     1      12.925   2.143   7.849  0.00  0.00    +0.000 A 
ATOM      6  C   UNL     1      12.520   1.454   8.985  0.00  0.00    +0.000 A 
ENDROOT
BRANCH   1   8
ATOM      7  C   UNL     1      13.266  -1.134  11.118  0.00  0.00    +0.000 C 
ATOM      8  O   UNL     1      12.308  -0.458  10.314  0.00  0.00    +0.000 OA
ENDBRANCH   1   8
BRANCH   6   9
ATOM      9  O   UNL     1      11.866   2.151   9.965  0.00  0.00    +0.000 OA
ATOM     10  H   UNL     1      11.085   2.532   9.521  0.00  0.00    +0.000 HD
ENDBRANCH   6   9
TORSDOF 2
ENDMDL
MODEL 8
REMARK VINA RESULT:    -3.959      2.595      3.514
REMARK INTER + INTRA:          -4.343
REMARK INTER:                  -4.291
REMARK INTRA:                  -0.053
REMARK UNBOUND:                -0.037
REMARK  Name = 
REMARK  3 active torsions:
REMARK  status: ('A' for Active; 'I' for Inactive)
REMARK    1  A    between atoms: C_1  and  O_2
REMARK    2  A    between atoms: O_2  and  C_3
REMARK    3  A    between atoms: C_8  and  O_9
REMARK                            x       y       z     vdW  Elec       q    Type
REMARK                         _______ _______ _______ _____ _____    ______ ____
ROOT
ATOM      1  C   UNL     1      11.610   0.379   9.856  0.00  0.00    +0.000 A 
ATOM      2  C   UNL     1      12.816   0.083   9.222  0.00  0.00    +0.000 A 
ATOM      3  C   UNL     1      13.028   0.487   7.898  0.00  0.00    +0.000 A 
ATOM      4  C   UNL     1      12.039   1.187   7.204  0.00  0.00    +0.000 A 
ATOM      5  C   UNL     1      10.832   1.488   7.831  0.00  0.00    +0.000 A 
ATOM      6  C   UNL     1      10.630   1.082   9.144  0.00  0.00    +0.000 A 
ENDROOT
BRANCH   1   8
ATOM      7  C   UNL     1      11.094  -1.340  11.413  0.00  0.00    +0.000 C 
ATOM      8  O   UNL     1      11.267   0.046  11.141  0.00  0.00    +0.000 OA
ENDBRANCH   1   8
BRANCH   6   9
ATOM      9  O   UNL     1       9.435   1.388   9.739  0.00  0.00    +0.000 OA
ATOM     10  H   UNL     1       8.772   0.869   9.246  0.00  0.00    +0.000 HD
ENDBRANCH   6   9
TORSDOF 2
ENDMDL
MODEL 9
REMARK VINA RESULT:    -3.922      2.411      3.225
REMARK INTER + INTRA:          -4.303
REMARK INTER:                  -4.265
REMARK INTRA:                  -0.037
REMARK UNBOUND:                -0.037
REMARK  Name = 
REMARK  3 active torsions:
REMARK  status: ('A' for Active; 'I' for Inactive)
REMARK    1  A    between atoms: C_1  and  O_2
REMARK    2  A    between atoms: O_2  and  C_3
REMARK    3  A    between atoms: C_8  and  O_9
REMARK                            x       y       z     vdW  Elec       q    Type
REMARK                         _______ _______ _______ _____ _____    ______ ____
ROOT
ATOM      1  C   UNL     1      12.844  -0.210   9.039  0.00  0.00    +0.000 A 
ATOM      2  C   UNL     1      11.792   0.502   9.614  0.00  0.00    +0.000 A 
ATOM      3  C   UNL     1      11.131   1.492   8.876  0.00  0.00    +0.000 A 
ATOM      4  C   UNL     1      11.518   1.774   7.565  0.00  0.00    +0.000 A 
ATOM      5  C   UNL     1      12.568   1.066   6.983  0.00  0.00    +0.000 A 
ATOM      6  C   UNL     1      13.218   0.087   7.723  0.00  0.00    +0.000 A 
ENDROOT
BRANCH   1   8
ATOM      7  C   UNL     1      13.181  -1.575  10.955  0.00  0.00    +0.000 C 
ATOM      8  O   UNL     1      13.577  -1.201   9.641  0.00  0.00    +0.000 OA
ENDBRANCH   1   8
BRANCH   6   9
ATOM      9  O   UNL     1      14.246  -0.595   7.129  0.00  0.00    +0.000 OA
ATOM     10  H   UNL     1      14.122  -1.523   7.406  0.00  0.00    +0.000 HD
ENDBRANCH   6   9
TORSDOF 2
ENDMDL
