MODEL 1
REMARK VINA RESULT:    -5.678      0.000      0.000
REMARK INTER + INTRA:          -8.293
REMARK INTER:                  -7.670
REMARK INTRA:                  -0.623
REMARK UNBOUND:                -0.623
REMARK  Name = 
REMARK  10 active torsions:
REMARK  status: ('A' for Active; 'I' for Inactive)
REMARK    1  A    between atoms: C_1  and  C_2
REMARK    2  A    between atoms: C_5  and  N_8
REMARK    3  A    between atoms: N_8  and  C_9
REMARK    4  A    between atoms: N_8  and  C_13
REMARK    5  A    between atoms: C_9  and  C_10
REMARK    6  A    between atoms: C_10  and  C_11
REMARK    7  A    between atoms: C_10  and  O_12
REMARK    8  A    between atoms: C_13  and  C_14
REMARK    9  A    between atoms: C_14  and  C_15
REMARK   10  A    between atoms: C_14  and  O_16
REMARK                            x       y       z     vdW  Elec       q    Type
REMARK                         _______ _______ _______ _____ _____    ______ ____
ROOT
ATOM      1  N   UNL     1      10.648   0.381  11.600  0.00  0.00    +0.000 N 
ENDROOT
BRANCH   1   6
ATOM      2  C   UNL     1      13.994   0.020   6.909  0.00  0.00    +0.000 C 
ATOM      3  C   UNL     1      13.143   0.128   8.138  0.00  0.00    +0.000 A 
ATOM      4  C   UNL     1      13.226  -0.822   9.150  0.00  0.00    +0.000 A 
ATOM      5  C   UNL     1      12.405  -0.732  10.286  0.00  0.00    +0.000 A 
ATOM      6  C   UNL     1      11.450   0.287  10.456  0.00  0.00    +0.000 A 
ATOM      7  C   UNL     1      11.395   1.231   9.414  0.00  0.00    +0.000 A 
ATOM      8  C   UNL     1      12.212   1.154   8.274  0.00  0.00    +0.000 A 
ENDBRANCH   1   6
BRANCH   1   9
ATOM      9  C   UNL     1      10.520   1.675  12.314  0.00  0.00    +0.000 C 
BRANCH   9  10
ATOM     10  C   UNL     1       9.056   2.173  12.396  0.00  0.00    +0.000 C 
ATOM     11  C   UNL     1       9.004   3.689  12.546  0.00  0.00    +0.000 C 
BRANCH  10  12
ATOM     12  O   UNL     1       8.325   1.818  11.214  0.00  0.00    +0.000 OA
ATOM     13  H   UNL     1       8.100   2.636  10.742  0.00  0.00    +0.000 HD
ENDBRANCH  10  12
ENDBRANCH   9  10
ENDBRANCH   1   9
BRANCH   1  14
ATOM     14  C   UNL     1      10.331  -0.817  12.418  0.00  0.00    +0.000 C 
BRANCH  14  15
ATOM     15  C   UNL     1       9.072  -1.558  11.907  0.00  0.00    +0.000 C 
ATOM     16  C   UNL     1       9.294  -3.053  11.711  0.00  0.00    +0.000 C 
BRANCH  15  17
ATOM     17  O   UNL     1       7.966  -1.388  12.792  0.00  0.00    +0.000 OA
ATOM     18  H   UNL     1       7.498  -2.248  12.779  0.00  0.00    +0.000 HD
ENDBRANCH  15  17
ENDBRANCH  14  15
ENDBRANCH   1  14
TORSDOF 7
ENDMDL
MODEL 2
REMARK VINA RESULT:    -5.648      0.699      3.110
REMARK INTER + INTRA:          -8.252
REMARK INTER:                  -7.538
REMARK INTRA:                  -0.714
REMARK UNBOUND:                -0.623
REMARK  Name = 
REMARK  10 active torsions:
REMARK  status: ('A' for Active; 'I' for Inactive)
REMARK    1  A    between atoms: C_1  and  C_2
REMARK    2  A    between atoms: C_5  and  N_8
REMARK    3  A    between atoms: N_8  and  C_9
REMARK    4  A    between atoms: N_8  and  C_13
REMARK    5  A    between atoms: C_9  and  C_10
REMARK    6  A    between atoms: C_10  and  C_11
REMARK    7  A    between atoms: C_10  and  O_12
REMARK    8  A    between atoms: C_13  and  C_14
REMARK    9  A    between atoms: C_14  and  C_15
REMARK   10  A    between atoms: C_14  and  O_16
REMARK                            x       y       z     vdW  Elec       q    Type
REMARK                         _______ _______ _______ _____ _____    ______ ____
ROOT
ATOM      1  N   UNL     1      10.462   0.788  11.232  0.00  0.00    +0.000 N 
ENDROOT
BRANCH   1   6
ATOM      2  C   UNL     1      14.129  -0.093   6.861  0.00  0.00    +0.000 C 
ATOM      3  C   UNL     1      13.195   0.151   8.006  0.00  0.00    +0.000 A 
ATOM      4  C   UNL     1      13.184  -0.693   9.111  0.00  0.00    +0.000 A 
ATOM      5  C   UNL     1      12.285  -0.478  10.168  0.00  0.00    +0.000 A 
ATOM      6  C   UNL     1      11.343   0.567  10.165  0.00  0.00    +0.000 A 
ATOM      7  C   UNL     1      11.384   1.402   9.033  0.00  0.00    +0.000 A 
ATOM      8  C   UNL     1      12.279   1.199   7.970  0.00  0.00    +0.000 A 
ENDBRANCH   1   6
BRANCH   1   9
ATOM      9  C   UNL     1      10.206  -0.288  12.219  0.00  0.00    +0.000 C 
BRANCH   9  10
ATOM     10  C   UNL     1       8.987  -1.167  11.846  0.00  0.00    +0.000 C 
ATOM     11  C   UNL     1       9.389  -2.632  11.723  0.00  0.00    +0.000 C 
BRANCH  10  12
ATOM     12  O   UNL     1       7.959  -1.071  12.842  0.00  0.00    +0.000 OA
ATOM     13  H   UNL     1       8.368  -0.766  13.669  0.00  0.00    +0.000 HD
ENDBRANCH  10  12
ENDBRANCH   9  10
ENDBRANCH   1   9
BRANCH   1  14
ATOM     14  C   UNL     1       9.404   1.827  11.152  0.00  0.00    +0.000 C 
BRANCH  14  15
ATOM     15  C   UNL     1       9.028   2.385  12.546  0.00  0.00    +0.000 C 
ATOM     16  C   UNL     1       9.158   3.901  12.641  0.00  0.00    +0.000 C 
BRANCH  15  17
ATOM     17  O   UNL     1       7.694   2.033  12.912  0.00  0.00    +0.000 OA
ATOM     18  H   UNL     1       7.544   2.472  13.773  0.00  0.00    +0.000 HD
ENDBRANCH  15  17
ENDBRANCH  14  15
ENDBRANCH   1  14
TORSDOF 7
ENDMDL
MODEL 3
REMARK VINA RESULT:    -5.152      2.589      5.066
REMARK INTER + INTRA:          -7.583
REMARK INTER:                  -7.026
REMARK INTRA:                  -0.557
REMARK UNBOUND:                -0.623
REMARK  Name = 
REMARK  10 active torsions:
REMARK  status: ('A' for Active; 'I' for Inactive)
REMARK    1  A    between atoms: C_1  and  C_2
REMARK    2  A    between atoms: C_5  and  N_8
REMARK    3  A    between atoms: N_8  and  C_9
REMARK    4  A    between atoms: N_8  and  C_13
REMARK    5  A    between atoms: C_9  and  C_10
REMARK    6  A    between atoms: C_10  and  C_11
REMARK    7  A    between atoms: C_10  and  O_12
REMARK    8  A    between atoms: C_13  and  C_14
REMARK    9  A    between atoms: C_14  and  C_15
REMARK   10  A    between atoms: C_14  and  O_16
REMARK                            x       y       z     vdW  Elec       q    Type
REMARK                         _______ _______ _______ _____ _____    ______ ____
ROOT
ATOM      1  N   UNL     1      11.698  -0.030  11.434  0.00  0.00    +0.000 N 
ENDROOT
BRANCH   1   6
ATOM      2  C   UNL     1       7.825   4.007  12.861  0.00  0.00    +0.000 C 
ATOM      3  C   UNL     1       8.842   2.976  12.477  0.00  0.00    +0.000 A 
ATOM      4  C   UNL     1       8.651   2.162  11.365  0.00  0.00    +0.000 A 
ATOM      5  C   UNL     1       9.593   1.178  11.028  0.00  0.00    +0.000 A 
ATOM      6  C   UNL     1      10.752   0.941  11.788  0.00  0.00    +0.000 A 
ATOM      7  C   UNL     1      10.915   1.783  12.903  0.00  0.00    +0.000 A 
ATOM      8  C   UNL     1       9.981   2.773  13.251  0.00  0.00    +0.000 A 
ENDBRANCH   1   6
BRANCH   1   9
ATOM      9  C   UNL     1      12.848   0.332  10.571  0.00  0.00    +0.000 C 
BRANCH   9  10
ATOM     10  C   UNL     1      12.688  -0.173   9.116  0.00  0.00    +0.000 C 
ATOM     11  C   UNL     1      12.878   0.966   8.120  0.00  0.00    +0.000 C 
BRANCH  10  12
ATOM     12  O   UNL     1      13.651  -1.192   8.815  0.00  0.00    +0.000 OA
ATOM     13  H   UNL     1      13.958  -1.574   9.654  0.00  0.00    +0.000 HD
ENDBRANCH  10  12
ENDBRANCH   9  10
ENDBRANCH   1   9
BRANCH   1  14
ATOM     14  C   UNL     1      11.357  -1.476  11.446  0.00  0.00    +0.000 C 
BRANCH  14  15
ATOM     15  C   UNL     1      12.344  -2.302  12.305  0.00  0.00    +0.000 C 
ATOM     16  C   UNL     1      11.701  -3.524  12.950  0.00  0.00    +0.000 C 
BRANCH  15  17
ATOM     17  O   UNL     1      13.465  -2.744  11.541  0.00  0.00    +0.000 OA
ATOM     18  H   UNL     1      13.191  -3.605  11.165  0.00  0.00    +0.000 HD
ENDBRANCH  15  17
ENDBRANCH  14  15
ENDBRANCH   1  14
TORSDOF 7
ENDMDL
MODEL 4
REMARK VINA RESULT:    -5.125      2.157      3.247
REMARK INTER + INTRA:          -7.545
REMARK INTER:                  -7.123
REMARK INTRA:                  -0.423
REMARK UNBOUND:                -0.623
REMARK  Name = 
REMARK  10 active torsions:
REMARK  status: ('A' for Active; 'I' for Inactive)
REMARK    1  A    between atoms: C_1  and  C_2
REMARK    2  A    between atoms: C_5  and  N_8
REMARK    3  A    between atoms: N_8  and  C_9
REMARK    4  A    between atoms: N_8  and  C_13
REMARK    5  A    between atoms: C_9  and  C_10
REMARK    6  A    between atoms: C_10  and  C_11
REMARK    7  A    between atoms: C_10  and  O_12
REMARK    8  A    between atoms: C_13  and  C_14
REMARK    9  A    between atoms: C_14  and  C_15
REMARK   10  A    between atoms: C_14  and  O_16
REMARK                            x       y       z     vdW  Elec       q    Type
REMARK                         _______ _______ _______ _____ _____    ______ ____
ROOT
ATOM      1  N   UNL     1      11.695   0.649  11.800  0.00  0.00    +0.000 N 
ENDROOT
BRANCH   1   6
ATOM      2  C   UNL     1      13.657   1.196   6.398  0.00  0.00    +0.000 C 
ATOM      3  C   UNL     1      13.171   1.057   7.809  0.00  0.00    +0.000 A 
ATOM      4  C   UNL     1      13.067  -0.193   8.408  0.00  0.00    +0.000 A 
ATOM      5  C   UNL     1      12.582  -0.321   9.720  0.00  0.00    +0.000 A 
ATOM      6  C   UNL     1      12.159   0.781  10.485  0.00  0.00    +0.000 A 
ATOM      7  C   UNL     1      12.280   2.030   9.848  0.00  0.00    +0.000 A 
ATOM      8  C   UNL     1      12.765   2.171   8.538  0.00  0.00    +0.000 A 
ENDBRANCH   1   6
BRANCH   1   9
ATOM      9  C   UNL     1      12.085  -0.529  12.611  0.00  0.00    +0.000 C 
BRANCH   9  10
ATOM     10  C   UNL     1      13.489  -0.383  13.246  0.00  0.00    +0.000 C 
ATOM     11  C   UNL     1      14.473  -1.369  12.627  0.00  0.00    +0.000 C 
BRANCH  10  12
ATOM     12  O   UNL     1      14.006   0.941  13.052  0.00  0.00    +0.000 OA
ATOM     13  H   UNL     1      14.947   0.936  13.294  0.00  0.00    +0.000 HD
ENDBRANCH  10  12
ENDBRANCH   9  10
ENDBRANCH   1   9
BRANCH   1  14
ATOM     14  C   UNL     1      10.457   1.336  12.251  0.00  0.00    +0.000 C 
BRANCH  14  15
ATOM     15  C   UNL     1       9.184   0.710  11.634  0.00  0.00    +0.000 C 
ATOM     16  C   UNL     1       8.352  -0.075  12.643  0.00  0.00    +0.000 C 
BRANCH  15  17
ATOM     17  O   UNL     1       8.343   1.700  11.044  0.00  0.00    +0.000 OA
ATOM     18  H   UNL     1       8.644   2.548  11.426  0.00  0.00    +0.000 HD
ENDBRANCH  15  17
ENDBRANCH  14  15
ENDBRANCH   1  14
TORSDOF 7
ENDMDL
MODEL 5
REMARK VINA RESULT:    -5.123      2.407      5.355
REMARK INTER + INTRA:          -7.544
REMARK INTER:                  -6.852
REMARK INTRA:                  -0.692
REMARK UNBOUND:                -0.623
REMARK  Name = 
REMARK  10 active torsions:
REMARK  status: ('A' for Active; 'I' for Inactive)
REMARK    1  A    between atoms: C_1  and  C_2
REMARK    2  A    between atoms: C_5  and  N_8
REMARK    3  A    between atoms: N_8  and  C_9
REMARK    4  A    between atoms: N_8  and  C_13
REMARK    5  A    between atoms: C_9  and  C_10
REMARK    6  A    between atoms: C_10  and  C_11
REMARK    7  A    between atoms: C_10  and  O_12
REMARK    8  A    between atoms: C_13  and  C_14
REMARK    9  A    between atoms: C_14  and  C_15
REMARK   10  A    between atoms: C_14  and  O_16
REMARK                            x       y       z     vdW  Elec       q    Type
REMARK                         _______ _______ _______ _____ _____    ______ ____
ROOT
ATOM      1  N   UNL     1      11.876   0.097  11.998  0.00  0.00    +0.000 N 
ENDROOT
BRANCH   1   6
ATOM      2  C   UNL     1       7.708   4.059  12.502  0.00  0.00    +0.000 C 
ATOM      3  C   UNL     1       8.802   3.046  12.357  0.00  0.00    +0.000 A 
ATOM      4  C   UNL     1       8.756   2.083  11.355  0.00  0.00    +0.000 A 
ATOM      5  C   UNL     1       9.769   1.117  11.242  0.00  0.00    +0.000 A 
ATOM      6  C   UNL     1      10.859   1.050  12.129  0.00  0.00    +0.000 A 
ATOM      7  C   UNL     1      10.875   2.041  13.128  0.00  0.00    +0.000 A 
ATOM      8  C   UNL     1       9.869   3.013  13.251  0.00  0.00    +0.000 A 
ENDBRANCH   1   6
BRANCH   1   9
ATOM      9  C   UNL     1      12.188  -0.817  13.124  0.00  0.00    +0.000 C 
BRANCH   9  10
ATOM     10  C   UNL     1      11.831  -2.292  12.816  0.00  0.00    +0.000 C 
ATOM     11  C   UNL     1      10.548  -2.382  11.998  0.00  0.00    +0.000 C 
BRANCH  10  12
ATOM     12  O   UNL     1      12.878  -2.931  12.073  0.00  0.00    +0.000 OA
ATOM     13  H   UNL     1      12.467  -3.499  11.400  0.00  0.00    +0.000 HD
ENDBRANCH  10  12
ENDBRANCH   9  10
ENDBRANCH   1   9
BRANCH   1  14
ATOM     14  C   UNL     1      12.977   0.276  11.017  0.00  0.00    +0.000 C 
BRANCH  14  15
ATOM     15  C   UNL     1      12.693  -0.451   9.681  0.00  0.00    +0.000 C 
ATOM     16  C   UNL     1      12.825   0.457   8.464  0.00  0.00    +0.000 C 
BRANCH  15  17
ATOM     17  O   UNL     1      13.560  -1.569   9.495  0.00  0.00    +0.000 OA
ATOM     18  H   UNL     1      12.971  -2.306   9.237  0.00  0.00    +0.000 HD
ENDBRANCH  15  17
ENDBRANCH  14  15
ENDBRANCH   1  14
TORSDOF 7
ENDMDL
MODEL 6
REMARK VINA RESULT:    -4.992      2.298      4.280
REMARK INTER + INTRA:          -7.367
REMARK INTER:                  -6.861
REMARK INTRA:                  -0.505
REMARK UNBOUND:                -0.623
REMARK  Name = 
REMARK  10 active torsions:
REMARK  status: ('A' for Active; 'I' for Inactive)
REMARK    1  A    between atoms: C_1  and  C_2
REMARK    2  A    between atoms: C_5  and  N_8
REMARK    3  A    between atoms: N_8  and  C_9
REMARK    4  A    between atoms: N_8  and  C_13
REMARK    5  A    between atoms: C_9  and  C_10
REMARK    6  A    between atoms: C_10  and  C_11
REMARK    7  A    between atoms: C_10  and  O_12
REMARK    8  A    between atoms: C_13  and  C_14
REMARK    9  A    between atoms: C_14  and  C_15
REMARK   10  A    between atoms: C_14  and  O_16
REMARK                            x       y       z     vdW  Elec       q    Type
REMARK                         _______ _______ _______ _____ _____    ______ ____
ROOT
ATOM      1  N   UNL     1      11.389   1.271  10.069  0.00  0.00    +0.000 N 
ENDROOT
BRANCH   1   6
ATOM      2  C   UNL     1      14.951  -2.261  12.928  0.00  0.00    +0.000 C 
ATOM      3  C   UNL     1      14.008  -1.353  12.199  0.00  0.00    +0.000 A 
ATOM      4  C   UNL     1      13.409  -1.752  11.008  0.00  0.00    +0.000 A 
ATOM      5  C   UNL     1      12.549  -0.885  10.314  0.00  0.00    +0.000 A 
ATOM      6  C   UNL     1      12.263   0.419  10.756  0.00  0.00    +0.000 A 
ATOM      7  C   UNL     1      12.884   0.787  11.964  0.00  0.00    +0.000 A 
ATOM      8  C   UNL     1      13.744  -0.070  12.670  0.00  0.00    +0.000 A 
ENDBRANCH   1   6
BRANCH   1   9
ATOM      9  C   UNL     1      10.381   2.061  10.816  0.00  0.00    +0.000 C 
BRANCH   9  10
ATOM     10  C   UNL     1       9.032   1.319  10.971  0.00  0.00    +0.000 C 
ATOM     11  C   UNL     1       9.138   0.205  12.007  0.00  0.00    +0.000 C 
BRANCH  10  12
ATOM     12  O   UNL     1       7.995   2.217  11.390  0.00  0.00    +0.000 OA
ATOM     13  H   UNL     1       8.249   3.116  11.121  0.00  0.00    +0.000 HD
ENDBRANCH  10  12
ENDBRANCH   9  10
ENDBRANCH   1   9
BRANCH   1  14
ATOM     14  C   UNL     1      11.074   1.053   8.634  0.00  0.00    +0.000 C 
BRANCH  14  15
ATOM     15  C   UNL     1      12.035   1.829   7.700  0.00  0.00    +0.000 C 
ATOM     16  C   UNL     1      13.219   0.992   7.230  0.00  0.00    +0.000 C 
BRANCH  15  17
ATOM     17  O   UNL     1      11.360   2.328   6.547  0.00  0.00    +0.000 OA
ATOM     18  H   UNL     1      11.020   3.206   6.813  0.00  0.00    +0.000 HD
ENDBRANCH  15  17
ENDBRANCH  14  15
ENDBRANCH   1  14
TORSDOF 7
ENDMDL
MODEL 7
REMARK VINA RESULT:    -4.976      1.806      4.322
REMARK INTER + INTRA:          -7.345
REMARK INTER:                  -6.980
REMARK INTRA:                  -0.365
REMARK UNBOUND:                -0.623
REMARK  Name = 
REMARK  10 active torsions:
REMARK  status: ('A' for Active; 'I' for Inactive)
REMARK    1  A    between atoms: C_1  and  C_2
REMARK    2  A    between atoms: C_5  and  N_8
REMARK    3  A    between atoms: N_8  and  C_9
REMARK    4  A    between atoms: N_8  and  C_13
REMARK    5  A    between atoms: C_9  and  C_10
REMARK    6  A    between atoms: C_10  and  C_11
REMARK    7  A    between atoms: C_10  and  O_12
REMARK    8  A    between atoms: C_13  and  C_14
REMARK    9  A    between atoms: C_14  and  C_15
REMARK   10  A    between atoms: C_14  and  O_16
REMARK                            x       y       z     vdW  Elec       q    Type
REMARK                         _______ _______ _______ _____ _____    ______ ____
ROOT
ATOM      1  N   UNL     1      10.607   0.935  10.266  0.00  0.00    +0.000 N 
ENDROOT
BRANCH   1   6
ATOM      2  C   UNL     1      10.702  -4.185  12.932  0.00  0.00    +0.000 C 
ATOM      3  C   UNL     1      10.682  -2.868  12.218  0.00  0.00    +0.000 A 
ATOM      4  C   UNL     1      11.839  -2.108  12.088  0.00  0.00    +0.000 A 
ATOM      5  C   UNL     1      11.808  -0.860  11.444  0.00  0.00    +0.000 A 
ATOM      6  C   UNL     1      10.627  -0.302  10.924  0.00  0.00    +0.000 A 
ATOM      7  C   UNL     1       9.477  -1.098  11.072  0.00  0.00    +0.000 A 
ATOM      8  C   UNL     1       9.494  -2.349  11.711  0.00  0.00    +0.000 A 
ENDBRANCH   1   6
BRANCH   1   9
ATOM      9  C   UNL     1      10.554   2.193  11.050  0.00  0.00    +0.000 C 
BRANCH   9  10
ATOM     10  C   UNL     1       9.381   2.222  12.060  0.00  0.00    +0.000 C 
ATOM     11  C   UNL     1       9.370   3.528  12.845  0.00  0.00    +0.000 C 
BRANCH  10  12
ATOM     12  O   UNL     1       8.120   2.096  11.389  0.00  0.00    +0.000 OA
ATOM     13  H   UNL     1       7.536   2.803  11.709  0.00  0.00    +0.000 HD
ENDBRANCH  10  12
ENDBRANCH   9  10
ENDBRANCH   1   9
BRANCH   1  14
ATOM     14  C   UNL     1      10.131   1.052   8.864  0.00  0.00    +0.000 C 
BRANCH  14  15
ATOM     15  C   UNL     1      11.258   1.494   7.900  0.00  0.00    +0.000 C 
ATOM     16  C   UNL     1      12.554   0.716   8.095  0.00  0.00    +0.000 C 
BRANCH  15  17
ATOM     17  O   UNL     1      10.865   1.362   6.534  0.00  0.00    +0.000 OA
ATOM     18  H   UNL     1      11.540   0.778   6.133  0.00  0.00    +0.000 HD
ENDBRANCH  15  17
ENDBRANCH  14  15
ENDBRANCH   1  14
TORSDOF 7
ENDMDL
MODEL 8
REMARK VINA RESULT:    -4.963      1.599      4.630
REMARK INTER + INTRA:          -7.327
REMARK INTER:                  -6.636
REMARK INTRA:                  -0.691
REMARK UNBOUND:                -0.623
REMARK  Name = 
REMARK  10 active torsions:
REMARK  status: ('A' for Active; 'I' for Inactive)
REMARK    1  A    between atoms: C_1  and  C_2
REMARK    2  A    between atoms: C_5  and  N_8
REMARK    3  A    between atoms: N_8  and  C_9
REMARK    4  A    between atoms: N_8  and  C_13
REMARK    5  A    between atoms: C_9  and  C_10
REMARK    6  A    between atoms: C_10  and  C_11
REMARK    7  A    between atoms: C_10  and  O_12
REMARK    8  A    between atoms: C_13  and  C_14
REMARK    9  A    between atoms: C_14  and  C_15
REMARK   10  A    between atoms: C_14  and  O_16
REMARK                            x       y       z     vdW  Elec       q    Type
REMARK                         _______ _______ _______ _____ _____    ______ ____
ROOT
ATOM      1  N   UNL     1      10.823   0.510  10.955  0.00  0.00    +0.000 N 
ENDROOT
BRANCH   1   6
ATOM      2  C   UNL     1      10.208  -4.837  13.042  0.00  0.00    +0.000 C 
ATOM      3  C   UNL     1      10.373  -3.460  12.479  0.00  0.00    +0.000 A 
ATOM      4  C   UNL     1      11.592  -2.795  12.564  0.00  0.00    +0.000 A 
ATOM      5  C   UNL     1      11.733  -1.491  12.061  0.00  0.00    +0.000 A 
ATOM      6  C   UNL     1      10.670  -0.783  11.473  0.00  0.00    +0.000 A 
ATOM      7  C   UNL     1       9.454  -1.486  11.401  0.00  0.00    +0.000 A 
ATOM      8  C   UNL     1       9.299  -2.791  11.899  0.00  0.00    +0.000 A 
ENDBRANCH   1   6
BRANCH   1   9
ATOM      9  C   UNL     1      11.587   0.723   9.702  0.00  0.00    +0.000 C 
BRANCH   9  10
ATOM     10  C   UNL     1      10.783   1.507   8.636  0.00  0.00    +0.000 C 
ATOM     11  C   UNL     1      11.362   1.284   7.244  0.00  0.00    +0.000 C 
BRANCH  10  12
ATOM     12  O   UNL     1       9.410   1.092   8.617  0.00  0.00    +0.000 OA
ATOM     13  H   UNL     1       8.972   1.532   7.870  0.00  0.00    +0.000 HD
ENDBRANCH  10  12
ENDBRANCH   9  10
ENDBRANCH   1   9
BRANCH   1  14
ATOM     14  C   UNL     1      10.710   1.706  11.828  0.00  0.00    +0.000 C 
BRANCH  14  15
ATOM     15  C   UNL     1       9.244   2.000  12.229  0.00  0.00    +0.000 C 
ATOM     16  C   UNL     1       9.040   3.413  12.763  0.00  0.00    +0.000 C 
BRANCH  15  17
ATOM     17  O   UNL     1       8.350   1.809  11.134  0.00  0.00    +0.000 OA
ATOM     18  H   UNL     1       7.593   1.314  11.508  0.00  0.00    +0.000 HD
ENDBRANCH  15  17
ENDBRANCH  14  15
ENDBRANCH   1  14
TORSDOF 7
ENDMDL
MODEL 9
REMARK VINA RESULT:    -4.961      2.267      2.998
REMARK INTER + INTRA:          -7.325
REMARK INTER:                  -6.869
REMARK INTRA:                  -0.456
REMARK UNBOUND:                -0.623
REMARK  Name = 
REMARK  10 active torsions:
REMARK  status: ('A' for Active; 'I' for Inactive)
REMARK    1  A    between atoms: C_1  and  C_2
REMARK    2  A    between atoms: C_5  and  N_8
REMARK    3  A    between atoms: N_8  and  C_9
REMARK    4  A    between atoms: N_8  and  C_13
REMARK    5  A    between atoms: C_9  and  C_10
REMARK    6  A    between atoms: C_10  and  C_11
REMARK    7  A    between atoms: C_10  and  O_12
REMARK    8  A    between atoms: C_13  and  C_14
REMARK    9  A    between atoms: C_14  and  C_15
REMARK   10  A    between atoms: C_14  and  O_16
REMARK                            x       y       z     vdW  Elec       q    Type
REMARK                         _______ _______ _______ _____ _____    ______ ____
ROOT
ATOM      1  N   UNL     1      11.984   0.126  11.829  0.00  0.00    +0.000 N 
ENDROOT
BRANCH   1   6
ATOM      2  C   UNL     1      13.579   1.633   6.489  0.00  0.00    +0.000 C 
ATOM      3  C   UNL     1      13.142   1.239   7.867  0.00  0.00    +0.000 A 
ATOM      4  C   UNL     1      12.760   2.201   8.797  0.00  0.00    +0.000 A 
ATOM      5  C   UNL     1      12.380   1.828  10.097  0.00  0.00    +0.000 A 
ATOM      6  C   UNL     1      12.383   0.492  10.538  0.00  0.00    +0.000 A 
ATOM      7  C   UNL     1      12.773  -0.452   9.571  0.00  0.00    +0.000 A 
ATOM      8  C   UNL     1      13.153  -0.094   8.267  0.00  0.00    +0.000 A 
ENDBRANCH   1   6
BRANCH   1   9
ATOM      9  C   UNL     1      10.640   0.507  12.328  0.00  0.00    +0.000 C 
BRANCH   9  10
ATOM     10  C   UNL     1       9.502   0.089  11.365  0.00  0.00    +0.000 C 
ATOM     11  C   UNL     1       8.961  -1.289  11.726  0.00  0.00    +0.000 C 
BRANCH  10  12
ATOM     12  O   UNL     1       8.414   1.022  11.418  0.00  0.00    +0.000 OA
ATOM     13  H   UNL     1       7.923   0.961  10.582  0.00  0.00    +0.000 HD
ENDBRANCH  10  12
ENDBRANCH   9  10
ENDBRANCH   1   9
BRANCH   1  14
ATOM     14  C   UNL     1      12.983  -0.167  12.889  0.00  0.00    +0.000 C 
BRANCH  14  15
ATOM     15  C   UNL     1      13.379  -1.663  12.920  0.00  0.00    +0.000 C 
ATOM     16  C   UNL     1      12.247  -2.592  12.496  0.00  0.00    +0.000 C 
BRANCH  15  17
ATOM     17  O   UNL     1      14.504  -1.928  12.084  0.00  0.00    +0.000 OA
ATOM     18  H   UNL     1      14.714  -1.070  11.663  0.00  0.00    +0.000 HD
ENDBRANCH  15  17
ENDBRANCH  14  15
ENDBRANCH   1  14
TORSDOF 7
ENDMDL
