MODEL 1
REMARK VINA RESULT:    -4.680      0.000      0.000
REMARK INTER + INTRA:          -5.122
REMARK INTER:                  -5.091
REMARK INTRA:                  -0.031
REMARK UNBOUND:                -0.031
REMARK  Name = 
REMARK  3 active torsions:
REMARK  status: ('A' for Active; 'I' for Inactive)
REMARK    1  A    between atoms: C_1  and  O_2
REMARK    2  A    between atoms: O_2  and  C_3
REMARK    3  A    between atoms: C_8  and  O_9
REMARK                            x       y       z     vdW  Elec       q    Type
REMARK                         _______ _______ _______ _____ _____    ______ ____
ROOT
ATOM      1  C   UNL     1      12.497   1.715   7.821  0.00  0.00    +0.000 A 
ATOM      2  C   UNL     1      12.775   1.878   9.177  0.00  0.00    +0.000 A 
ATOM      3  C   UNL     1      11.752   1.731  10.123  0.00  0.00    +0.000 A 
ATOM      4  C   UNL     1      10.452   1.423   9.718  0.00  0.00    +0.000 A 
ATOM      5  C   UNL     1      10.167   1.259   8.364  0.00  0.00    +0.000 A 
ATOM      6  C   UNL     1      11.187   1.406   7.433  0.00  0.00    +0.000 A 
ENDROOT
BRANCH   1   8
ATOM      7  C   UNL     1      14.264   0.723   6.579  0.00  0.00    +0.000 C 
ATOM      8  O   UNL     1      13.395   1.830   6.790  0.00  0.00    +0.000 OA
ENDBRANCH   1   8
BRANCH   6   9
ATOM      9  O   UNL     1      10.883   1.240   6.109  0.00  0.00    +0.000 OA
ATOM     10  H   UNL     1      10.593   2.123   5.808  0.00  0.00    +0.000 HD
ENDBRANCH   6   9
TORSDOF 2
ENDMDL
MODEL 2
REMARK VINA RESULT:    -4.508      2.430      3.777
REMARK INTER + INTRA:          -4.935
REMARK INTER:                  -4.886
REMARK INTRA:                  -0.049
REMARK UNBOUND:                -0.031
REMARK  Name = 
REMARK  3 active torsions:
REMARK  status: ('A' for Active; 'I' for Inactive)
REMARK    1  A    between atoms: C_1  and  O_2
REMARK    2  A    between atoms: O_2  and  C_3
REMARK    3  A    between atoms: C_8  and  O_9
REMARK                            x       y       z     vdW  Elec       q    Type
REMARK                         _______ _______ _______ _____ _____    ______ ____
ROOT
ATOM      1  C   UNL     1      12.454   0.530   9.100  0.00  0.00    +0.000 A 
ATOM      2  C   UNL     1      12.174   1.722   8.433  0.00  0.00    +0.000 A 
ATOM      3  C   UNL     1      12.752   1.976   7.183  0.00  0.00    +0.000 A 
ATOM      4  C   UNL     1      13.610   1.043   6.597  0.00  0.00    +0.000 A 
ATOM      5  C   UNL     1      13.894  -0.150   7.257  0.00  0.00    +0.000 A 
ATOM      6  C   UNL     1      13.317  -0.393   8.497  0.00  0.00    +0.000 A 
ENDROOT
BRANCH   1   8
ATOM      7  C   UNL     1      12.479   0.839  11.456  0.00  0.00    +0.000 C 
ATOM      8  O   UNL     1      11.962   0.151  10.323  0.00  0.00    +0.000 OA
ENDBRANCH   1   8
BRANCH   6   9
ATOM      9  O   UNL     1      13.611  -1.573   9.127  0.00  0.00    +0.000 OA
ATOM     10  H   UNL     1      12.943  -2.204   8.797  0.00  0.00    +0.000 HD
ENDBRANCH   6   9
TORSDOF 2
ENDMDL
MODEL 3
REMARK VINA RESULT:    -4.311      2.135      2.670
REMARK INTER + INTRA:          -4.720
REMARK INTER:                  -4.680
REMARK INTRA:                  -0.040
REMARK UNBOUND:                -0.031
REMARK  Name = 
REMARK  3 active torsions:
REMARK  status: ('A' for Active; 'I' for Inactive)
REMARK    1  A    between atoms: C_1  and  O_2
REMARK    2  A    between atoms: O_2  and  C_3
REMARK    3  A    between atoms: C_8  and  O_9
REMARK                            x       y       z     vdW  Elec       q    Type
REMARK                         _______ _______ _______ _____ _____    ______ ____
ROOT
ATOM      1  C   UNL     1      12.891   0.334   8.564  0.00  0.00    +0.000 A 
ATOM      2  C   UNL     1      12.170   1.502   8.809  0.00  0.00    +0.000 A 
ATOM      3  C   UNL     1      11.548   1.693  10.049  0.00  0.00    +0.000 A 
ATOM      4  C   UNL     1      11.643   0.719  11.046  0.00  0.00    +0.000 A 
ATOM      5  C   UNL     1      12.362  -0.450  10.808  0.00  0.00    +0.000 A 
ATOM      6  C   UNL     1      12.975  -0.631   9.575  0.00  0.00    +0.000 A 
ENDROOT
BRANCH   1   8
ATOM      7  C   UNL     1      13.940   1.104   6.575  0.00  0.00    +0.000 C 
ATOM      8  O   UNL     1      13.547   0.015   7.402  0.00  0.00    +0.000 OA
ENDBRANCH   1   8
BRANCH   6   9
ATOM      9  O   UNL     1      13.676  -1.788   9.365  0.00  0.00    +0.000 OA
ATOM     10  H   UNL     1      14.581  -1.495   9.147  0.00  0.00    +0.000 HD
ENDBRANCH   6   9
TORSDOF 2
ENDMDL
MODEL 4
REMARK VINA RESULT:    -4.291      1.709      3.246
REMARK INTER + INTRA:          -4.699
REMARK INTER:                  -4.659
REMARK INTRA:                  -0.040
REMARK UNBOUND:                -0.031
REMARK  Name = 
REMARK  3 active torsions:
REMARK  status: ('A' for Active; 'I' for Inactive)
REMARK    1  A    between atoms: C_1  and  O_2
REMARK    2  A    between atoms: O_2  and  C_3
REMARK    3  A    between atoms: C_8  and  O_9
REMARK                            x       y       z     vdW  Elec       q    Type
REMARK                         _______ _______ _______ _____ _____    ______ ____
ROOT
ATOM      1  C   UNL     1      11.640   0.982   8.561  0.00  0.00    +0.000 A 
ATOM      2  C   UNL     1      12.407   0.052   9.260  0.00  0.00    +0.000 A 
ATOM      3  C   UNL     1      13.492  -0.573   8.632  0.00  0.00    +0.000 A 
ATOM      4  C   UNL     1      13.813  -0.271   7.308  0.00  0.00    +0.000 A 
ATOM      5  C   UNL     1      13.051   0.658   6.603  0.00  0.00    +0.000 A 
ATOM      6  C   UNL     1      11.977   1.272   7.233  0.00  0.00    +0.000 A 
ENDROOT
BRANCH   1   8
ATOM      7  C   UNL     1       9.826   1.040  10.096  0.00  0.00    +0.000 C 
ATOM      8  O   UNL     1      10.554   1.667   9.047  0.00  0.00    +0.000 OA
ENDBRANCH   1   8
BRANCH   6   9
ATOM      9  O   UNL     1      11.242   2.182   6.520  0.00  0.00    +0.000 OA
ATOM     10  H   UNL     1      11.665   2.207   5.641  0.00  0.00    +0.000 HD
ENDBRANCH   6   9
TORSDOF 2
ENDMDL
MODEL 5
REMARK VINA RESULT:    -4.045     13.069     13.577
REMARK INTER + INTRA:          -4.431
REMARK INTER:                  -4.386
REMARK INTRA:                  -0.045
REMARK UNBOUND:                -0.031
REMARK  Name = 
REMARK  3 active torsions:
REMARK  status: ('A' for Active; 'I' for Inactive)
REMARK    1  A    between atoms: C_1  and  O_2
REMARK    2  A    between atoms: O_2  and  C_3
REMARK    3  A    between atoms: C_8  and  O_9
REMARK                            x       y       z     vdW  Elec       q    Type
REMARK                         _______ _______ _______ _____ _____    ______ ____
ROOT
ATOM      1  C   UNL     1       4.607  -9.046  11.370  0.00  0.00    +0.000 A 
ATOM      2  C   UNL     1       3.597  -8.086  11.342  0.00  0.00    +0.000 A 
ATOM      3  C   UNL     1       3.085  -7.645  10.115  0.00  0.00    +0.000 A 
ATOM      4  C   UNL     1       3.579  -8.160   8.915  0.00  0.00    +0.000 A 
ATOM      5  C   UNL     1       4.589  -9.119   8.935  0.00  0.00    +0.000 A 
ATOM      6  C   UNL     1       5.091  -9.551  10.157  0.00  0.00    +0.000 A 
ENDROOT
BRANCH   1   8
ATOM      7  C   UNL     1       4.425 -10.487  13.251  0.00  0.00    +0.000 C 
ATOM      8  O   UNL     1       5.200  -9.567  12.492  0.00  0.00    +0.000 OA
ENDBRANCH   1   8
BRANCH   6   9
ATOM      9  O   UNL     1       6.083 -10.495  10.151  0.00  0.00    +0.000 OA
ATOM     10  H   UNL     1       6.265 -10.670  11.094  0.00  0.00    +0.000 HD
ENDBRANCH   6   9
TORSDOF 2
ENDMDL
MODEL 6
REMARK VINA RESULT:    -4.032      2.281      4.057
REMARK INTER + INTRA:          -4.416
REMARK INTER:                  -4.366
REMARK INTRA:                  -0.050
REMARK UNBOUND:                -0.031
REMARK  Name = 
REMARK  3 active torsions:
REMARK  status: ('A' for Active; 'I' for Inactive)
REMARK    1  A    between atoms: C_1  and  O_2
REMARK    2  A    between atoms: O_2  and  C_3
REMARK    3  A    between atoms: C_8  and  O_9
REMARK                            x       y       z     vdW  Elec       q    Type
REMARK                         _______ _______ _______ _____ _____    ______ ____
ROOT
ATOM      1  C   UNL     1      10.870   1.239   9.614  0.00  0.00    +0.000 A 
ATOM      2  C   UNL     1      10.216   1.214   8.383  0.00  0.00    +0.000 A 
ATOM      3  C   UNL     1      10.921   1.515   7.211  0.00  0.00    +0.000 A 
ATOM      4  C   UNL     1      12.277   1.841   7.264  0.00  0.00    +0.000 A 
ATOM      5  C   UNL     1      12.938   1.867   8.490  0.00  0.00    +0.000 A 
ATOM      6  C   UNL     1      12.231   1.568   9.648  0.00  0.00    +0.000 A 
ENDROOT
BRANCH   1   8
ATOM      7  C   UNL     1       9.151   1.719  11.183  0.00  0.00    +0.000 C 
ATOM      8  O   UNL     1      10.309   0.969  10.837  0.00  0.00    +0.000 OA
ENDBRANCH   1   8
BRANCH   6   9
ATOM      9  O   UNL     1      12.902   1.601  10.841  0.00  0.00    +0.000 OA
ATOM     10  H   UNL     1      12.280   2.024  11.464  0.00  0.00    +0.000 HD
ENDBRANCH   6   9
TORSDOF 2
ENDMDL
MODEL 7
REMARK VINA RESULT:    -3.996      2.445      3.674
REMARK INTER + INTRA:          -4.377
REMARK INTER:                  -4.325
REMARK INTRA:                  -0.052
REMARK UNBOUND:                -0.031
REMARK  Name = 
REMARK  3 active torsions:
REMARK  status: ('A' for Active; 'I' for Inactive)
REMARK    1  A    between atoms: C_1  and  O_2
REMARK    2  A    between atoms: O_2  and  C_3
REMARK    3  A    between atoms: C_8  and  O_9
REMARK                            x       y       z     vdW  Elec       q    Type
REMARK                         _______ _______ _______ _____ _____    ______ ____
ROOT
ATOM      1  C   UNL     1      12.846  -0.002   9.009  0.00  0.00    +0.000 A 
ATOM      2  C   UNL     1      13.543  -0.549   7.932  0.00  0.00    +0.000 A 
ATOM      3  C   UNL     1      13.971   0.276   6.884  0.00  0.00    +0.000 A 
ATOM      4  C   UNL     1      13.704   1.646   6.907  0.00  0.00    +0.000 A 
ATOM      5  C   UNL     1      13.009   2.200   7.980  0.00  0.00    +0.000 A 
ATOM      6  C   UNL     1      12.588   1.374   9.015  0.00  0.00    +0.000 A 
ENDROOT
BRANCH   1   8
ATOM      7  C   UNL     1      13.337  -1.335  10.914  0.00  0.00    +0.000 C 
ATOM      8  O   UNL     1      12.369  -0.687  10.097  0.00  0.00    +0.000 OA
ENDBRANCH   1   8
BRANCH   6   9
ATOM      9  O   UNL     1      11.906   1.941  10.058  0.00  0.00    +0.000 OA
ATOM     10  H   UNL     1      12.079   2.899   9.977  0.00  0.00    +0.000 HD
ENDBRANCH   6   9
TORSDOF 2
ENDMDL
MODEL 8
REMARK VINA RESULT:    -3.979      2.442      3.456
REMARK INTER + INTRA:          -4.359
REMARK INTER:                  -4.307
REMARK INTRA:                  -0.052
REMARK UNBOUND:                -0.031
REMARK  Name = 
REMARK  3 active torsions:
REMARK  status: ('A' for Active; 'I' for Inactive)
REMARK    1  A    between atoms: C_1  and  O_2
REMARK    2  A    between atoms: O_2  and  C_3
REMARK    3  A    between atoms: C_8  and  O_9
REMARK                            x       y       z     vdW  Elec       q    Type
REMARK                         _______ _______ _______ _____ _____    ______ ____
ROOT
ATOM      1  C   UNL     1      11.574   0.568   9.885  0.00  0.00    +0.000 A 
ATOM      2  C   UNL     1      12.747   0.332   9.170  0.00  0.00    +0.000 A 
ATOM      3  C   UNL     1      12.818   0.666   7.811  0.00  0.00    +0.000 A 
ATOM      4  C   UNL     1      11.719   1.235   7.164  0.00  0.00    +0.000 A 
ATOM      5  C   UNL     1      10.543   1.474   7.872  0.00  0.00    +0.000 A 
ATOM      6  C   UNL     1      10.482   1.140   9.219  0.00  0.00    +0.000 A 
ENDROOT
BRANCH   1   8
ATOM      7  C   UNL     1      12.086   1.085  12.147  0.00  0.00    +0.000 C 
ATOM      8  O   UNL     1      11.364   0.293  11.212  0.00  0.00    +0.000 OA
ENDBRANCH   1   8
BRANCH   6   9
ATOM      9  O   UNL     1       9.316   1.384   9.894  0.00  0.00    +0.000 OA
ATOM     10  H   UNL     1       8.682   1.655   9.203  0.00  0.00    +0.000 HD
ENDBRANCH   6   9
TORSDOF 2
ENDMDL
MODEL 9
REMARK VINA RESULT:    -3.957      2.334      3.157
REMARK INTER + INTRA:          -4.335
REMARK INTER:                  -4.297
REMARK INTRA:                  -0.038
REMARK UNBOUND:                -0.031
REMARK  Name = 
REMARK  3 active torsions:
REMARK  status: ('A' for Active; 'I' for Inactive)
REMARK    1  A    between atoms: C_1  and  O_2
REMARK    2  A    between atoms: O_2  and  C_3
REMARK    3  A    between atoms: C_8  and  O_9
REMARK                            x       y       z     vdW  Elec       q    Type
REMARK                         _______ _______ _______ _____ _____    ______ ____
ROOT
ATOM      1  C   UNL     1      12.814  -0.230   9.004  0.00  0.00    +0.000 A 
ATOM      2  C   UNL     1      11.738   0.469   9.550  0.00  0.00    +0.000 A 
ATOM      3  C   UNL     1      11.105   1.472   8.805  0.00  0.00    +0.000 A 
ATOM      4  C   UNL     1      11.544   1.780   7.516  0.00  0.00    +0.000 A 
ATOM      5  C   UNL     1      12.618   1.085   6.963  0.00  0.00    +0.000 A 
ATOM      6  C   UNL     1      13.240   0.092   7.709  0.00  0.00    +0.000 A 
ENDROOT
BRANCH   1   8
ATOM      7  C   UNL     1      13.194  -1.507  10.972  0.00  0.00    +0.000 C 
ATOM      8  O   UNL     1      13.525  -1.231   9.616  0.00  0.00    +0.000 OA
ENDBRANCH   1   8
BRANCH   6   9
ATOM      9  O   UNL     1      14.293  -0.577   7.145  0.00  0.00    +0.000 OA
ATOM     10  H   UNL     1      14.923  -0.712   7.878  0.00  0.00    +0.000 HD
ENDBRANCH   6   9
TORSDOF 2
ENDMDL
