MODEL 1
REMARK VINA RESULT:    -4.712      0.000      0.000
REMARK INTER + INTRA:          -5.163
REMARK INTER:                  -5.125
REMARK INTRA:                  -0.038
REMARK UNBOUND:                -0.038
REMARK  Name = 
REMARK  3 active torsions:
REMARK  status: ('A' for Active; 'I' for Inactive)
REMARK    1  A    between atoms: C_1  and  O_2
REMARK    2  A    between atoms: O_2  and  C_3
REMARK    3  A    between atoms: C_8  and  O_9
REMARK                            x       y       z     vdW  Elec       q    Type
REMARK                         _______ _______ _______ _____ _____    ______ ____
ROOT
ATOM      1  C   UNL     1      12.429   1.749   7.822  0.00  0.00    +0.000 A 
ATOM      2  C   UNL     1      12.742   1.940   9.167  0.00  0.00    +0.000 A 
ATOM      3  C   UNL     1      11.751   1.790  10.145  0.00  0.00    +0.000 A 
ATOM      4  C   UNL     1      10.446   1.450   9.782  0.00  0.00    +0.000 A 
ATOM      5  C   UNL     1      10.125   1.257   8.441  0.00  0.00    +0.000 A 
ATOM      6  C   UNL     1      11.115   1.408   7.478  0.00  0.00    +0.000 A 
ENDROOT
BRANCH   1   8
ATOM      7  C   UNL     1      14.207   0.788   6.571  0.00  0.00    +0.000 C 
ATOM      8  O   UNL     1      13.295   1.863   6.764  0.00  0.00    +0.000 OA
ENDBRANCH   1   8
BRANCH   6   9
ATOM      9  O   UNL     1      10.776   1.214   6.166  0.00  0.00    +0.000 OA
ATOM     10  H   UNL     1      11.320   0.456   5.878  0.00  0.00    +0.000 HD
ENDBRANCH   6   9
TORSDOF 2
ENDMDL
MODEL 2
REMARK VINA RESULT:    -4.514      2.420      3.819
REMARK INTER + INTRA:          -4.948
REMARK INTER:                  -4.895
REMARK INTRA:                  -0.052
REMARK UNBOUND:                -0.038
REMARK  Name = 
REMARK  3 active torsions:
REMARK  status: ('A' for Active; 'I' for Inactive)
REMARK    1  A    between atoms: C_1  and  O_2
REMARK    2  A    between atoms: O_2  and  C_3
REMARK    3  A    between atoms: C_8  and  O_9
REMARK                            x       y       z     vdW  Elec       q    Type
REMARK                         _______ _______ _______ _____ _____    ______ ____
ROOT
ATOM      1  C   UNL     1      12.495   0.508   9.056  0.00  0.00    +0.000 A 
ATOM      2  C   UNL     1      12.227   1.695   8.376  0.00  0.00    +0.000 A 
ATOM      3  C   UNL     1      12.815   1.935   7.127  0.00  0.00    +0.000 A 
ATOM      4  C   UNL     1      13.670   0.991   6.555  0.00  0.00    +0.000 A 
ATOM      5  C   UNL     1      13.943  -0.197   7.228  0.00  0.00    +0.000 A 
ATOM      6  C   UNL     1      13.356  -0.426   8.466  0.00  0.00    +0.000 A 
ENDROOT
BRANCH   1   8
ATOM      7  C   UNL     1      12.350   0.966  11.383  0.00  0.00    +0.000 C 
ATOM      8  O   UNL     1      11.994   0.143  10.279  0.00  0.00    +0.000 OA
ENDBRANCH   1   8
BRANCH   6   9
ATOM      9  O   UNL     1      13.639  -1.602   9.108  0.00  0.00    +0.000 OA
ATOM     10  H   UNL     1      13.099  -2.273   8.649  0.00  0.00    +0.000 HD
ENDBRANCH   6   9
TORSDOF 2
ENDMDL
MODEL 3
REMARK VINA RESULT:    -4.321      2.188      2.675
REMARK INTER + INTRA:          -4.738
REMARK INTER:                  -4.700
REMARK INTRA:                  -0.039
REMARK UNBOUND:                -0.038
REMARK  Name = 
REMARK  3 active torsions:
REMARK  status: ('A' for Active; 'I' for Inactive)
REMARK    1  A    between atoms: C_1  and  O_2
REMARK    2  A    between atoms: O_2  and  C_3
REMARK    3  A    between atoms: C_8  and  O_9
REMARK                            x       y       z     vdW  Elec       q    Type
REMARK                         _______ _______ _______ _____ _____    ______ ____
ROOT
ATOM      1  C   UNL     1      12.930   0.309   8.568  0.00  0.00    +0.000 A 
ATOM      2  C   UNL     1      12.229   1.494   8.785  0.00  0.00    +0.000 A 
ATOM      3  C   UNL     1      11.570   1.704  10.003  0.00  0.00    +0.000 A 
ATOM      4  C   UNL     1      11.608   0.732  11.005  0.00  0.00    +0.000 A 
ATOM      5  C   UNL     1      12.307  -0.454  10.796  0.00  0.00    +0.000 A 
ATOM      6  C   UNL     1      12.957  -0.654   9.585  0.00  0.00    +0.000 A 
ENDROOT
BRANCH   1   8
ATOM      7  C   UNL     1      13.955   1.037   6.552  0.00  0.00    +0.000 C 
ATOM      8  O   UNL     1      13.617  -0.030   7.430  0.00  0.00    +0.000 OA
ENDBRANCH   1   8
BRANCH   6   9
ATOM      9  O   UNL     1      13.638  -1.828   9.402  0.00  0.00    +0.000 OA
ATOM     10  H   UNL     1      14.183  -1.678   8.606  0.00  0.00    +0.000 HD
ENDBRANCH   6   9
TORSDOF 2
ENDMDL
MODEL 4
REMARK VINA RESULT:    -4.319     13.247     13.527
REMARK INTER + INTRA:          -4.736
REMARK INTER:                  -4.684
REMARK INTRA:                  -0.052
REMARK UNBOUND:                -0.038
REMARK  Name = 
REMARK  3 active torsions:
REMARK  status: ('A' for Active; 'I' for Inactive)
REMARK    1  A    between atoms: C_1  and  O_2
REMARK    2  A    between atoms: O_2  and  C_3
REMARK    3  A    between atoms: C_8  and  O_9
REMARK                            x       y       z     vdW  Elec       q    Type
REMARK                         _______ _______ _______ _____ _____    ______ ____
ROOT
ATOM      1  C   UNL     1       4.195  -9.070   9.780  0.00  0.00    +0.000 A 
ATOM      2  C   UNL     1       3.232  -8.253  10.371  0.00  0.00    +0.000 A 
ATOM      3  C   UNL     1       3.259  -8.027  11.753  0.00  0.00    +0.000 A 
ATOM      4  C   UNL     1       4.245  -8.617  12.547  0.00  0.00    +0.000 A 
ATOM      5  C   UNL     1       5.210  -9.435  11.964  0.00  0.00    +0.000 A 
ATOM      6  C   UNL     1       5.175  -9.653  10.592  0.00  0.00    +0.000 A 
ENDROOT
BRANCH   1   8
ATOM      7  C   UNL     1       3.265 -10.209   7.913  0.00  0.00    +0.000 C 
ATOM      8  O   UNL     1       4.289  -9.378   8.446  0.00  0.00    +0.000 OA
ENDBRANCH   1   8
BRANCH   6   9
ATOM      9  O   UNL     1       6.134 -10.461  10.042  0.00  0.00    +0.000 OA
ATOM     10  H   UNL     1       6.686  -9.860   9.505  0.00  0.00    +0.000 HD
ENDBRANCH   6   9
TORSDOF 2
ENDMDL
MODEL 5
REMARK VINA RESULT:    -4.261      1.672      3.253
REMARK INTER + INTRA:          -4.673
REMARK INTER:                  -4.630
REMARK INTRA:                  -0.042
REMARK UNBOUND:                -0.038
REMARK  Name = 
REMARK  3 active torsions:
REMARK  status: ('A' for Active; 'I' for Inactive)
REMARK    1  A    between atoms: C_1  and  O_2
REMARK    2  A    between atoms: O_2  and  C_3
REMARK    3  A    between atoms: C_8  and  O_9
REMARK                            x       y       z     vdW  Elec       q    Type
REMARK                         _______ _______ _______ _____ _____    ______ ____
ROOT
ATOM      1  C   UNL     1      11.713   1.049   8.497  0.00  0.00    +0.000 A 
ATOM      2  C   UNL     1      12.456   0.087   9.180  0.00  0.00    +0.000 A 
ATOM      3  C   UNL     1      13.520  -0.560   8.541  0.00  0.00    +0.000 A 
ATOM      4  C   UNL     1      13.845  -0.250   7.219  0.00  0.00    +0.000 A 
ATOM      5  C   UNL     1      13.108   0.710   6.529  0.00  0.00    +0.000 A 
ATOM      6  C   UNL     1      12.054   1.346   7.171  0.00  0.00    +0.000 A 
ENDROOT
BRANCH   1   8
ATOM      7  C   UNL     1       9.812   1.078   9.922  0.00  0.00    +0.000 C 
ATOM      8  O   UNL     1      10.650   1.758   8.995  0.00  0.00    +0.000 OA
ENDBRANCH   1   8
BRANCH   6   9
ATOM      9  O   UNL     1      11.344   2.286   6.472  0.00  0.00    +0.000 OA
ATOM     10  H   UNL     1      10.756   2.697   7.135  0.00  0.00    +0.000 HD
ENDBRANCH   6   9
TORSDOF 2
ENDMDL
MODEL 6
REMARK VINA RESULT:    -4.040      2.255      4.050
REMARK INTER + INTRA:          -4.432
REMARK INTER:                  -4.380
REMARK INTRA:                  -0.052
REMARK UNBOUND:                -0.038
REMARK  Name = 
REMARK  3 active torsions:
REMARK  status: ('A' for Active; 'I' for Inactive)
REMARK    1  A    between atoms: C_1  and  O_2
REMARK    2  A    between atoms: O_2  and  C_3
REMARK    3  A    between atoms: C_8  and  O_9
REMARK                            x       y       z     vdW  Elec       q    Type
REMARK                         _______ _______ _______ _____ _____    ______ ____
ROOT
ATOM      1  C   UNL     1      10.864   1.243   9.601  0.00  0.00    +0.000 A 
ATOM      2  C   UNL     1      10.249   1.239   8.350  0.00  0.00    +0.000 A 
ATOM      3  C   UNL     1      11.000   1.518   7.200  0.00  0.00    +0.000 A 
ATOM      4  C   UNL     1      12.364   1.800   7.297  0.00  0.00    +0.000 A 
ATOM      5  C   UNL     1      12.985   1.805   8.544  0.00  0.00    +0.000 A 
ATOM      6  C   UNL     1      12.233   1.528   9.678  0.00  0.00    +0.000 A 
ENDROOT
BRANCH   1   8
ATOM      7  C   UNL     1       9.243   1.904  11.208  0.00  0.00    +0.000 C 
ATOM      8  O   UNL     1      10.256   0.990  10.804  0.00  0.00    +0.000 OA
ENDBRANCH   1   8
BRANCH   6   9
ATOM      9  O   UNL     1      12.866   1.539  10.892  0.00  0.00    +0.000 OA
ATOM     10  H   UNL     1      12.365   0.904  11.439  0.00  0.00    +0.000 HD
ENDBRANCH   6   9
TORSDOF 2
ENDMDL
MODEL 7
REMARK VINA RESULT:    -3.963      2.444      3.443
REMARK INTER + INTRA:          -4.349
REMARK INTER:                  -4.301
REMARK INTRA:                  -0.047
REMARK UNBOUND:                -0.038
REMARK  Name = 
REMARK  3 active torsions:
REMARK  status: ('A' for Active; 'I' for Inactive)
REMARK    1  A    between atoms: C_1  and  O_2
REMARK    2  A    between atoms: O_2  and  C_3
REMARK    3  A    between atoms: C_8  and  O_9
REMARK                            x       y       z     vdW  Elec       q    Type
REMARK                         _______ _______ _______ _____ _____    ______ ____
ROOT
ATOM      1  C   UNL     1      11.654   0.511   9.860  0.00  0.00    +0.000 A 
ATOM      2  C   UNL     1      12.806   0.291   9.105  0.00  0.00    +0.000 A 
ATOM      3  C   UNL     1      12.839   0.660   7.755  0.00  0.00    +0.000 A 
ATOM      4  C   UNL     1      11.725   1.249   7.154  0.00  0.00    +0.000 A 
ATOM      5  C   UNL     1      10.570   1.472   7.901  0.00  0.00    +0.000 A 
ATOM      6  C   UNL     1      10.546   1.103   9.240  0.00  0.00    +0.000 A 
ENDROOT
BRANCH   1   8
ATOM      7  C   UNL     1      12.167   1.021  12.123  0.00  0.00    +0.000 C 
ATOM      8  O   UNL     1      11.481   0.201  11.185  0.00  0.00    +0.000 OA
ENDBRANCH   1   8
BRANCH   6   9
ATOM      9  O   UNL     1       9.400   1.332   9.954  0.00  0.00    +0.000 OA
ATOM     10  H   UNL     1       9.219   0.489  10.410  0.00  0.00    +0.000 HD
ENDBRANCH   6   9
TORSDOF 2
ENDMDL
MODEL 8
REMARK VINA RESULT:    -3.850      2.333      2.705
REMARK INTER + INTRA:          -4.226
REMARK INTER:                  -4.188
REMARK INTRA:                  -0.038
REMARK UNBOUND:                -0.038
REMARK  Name = 
REMARK  3 active torsions:
REMARK  status: ('A' for Active; 'I' for Inactive)
REMARK    1  A    between atoms: C_1  and  O_2
REMARK    2  A    between atoms: O_2  and  C_3
REMARK    3  A    between atoms: C_8  and  O_9
REMARK                            x       y       z     vdW  Elec       q    Type
REMARK                         _______ _______ _______ _____ _____    ______ ____
ROOT
ATOM      1  C   UNL     1      11.687   0.847   9.106  0.00  0.00    +0.000 A 
ATOM      2  C   UNL     1      12.812   0.041   9.274  0.00  0.00    +0.000 A 
ATOM      3  C   UNL     1      12.840  -0.917  10.296  0.00  0.00    +0.000 A 
ATOM      4  C   UNL     1      11.747  -1.071  11.151  0.00  0.00    +0.000 A 
ATOM      5  C   UNL     1      10.619  -0.270  10.989  0.00  0.00    +0.000 A 
ATOM      6  C   UNL     1      10.601   0.678   9.973  0.00  0.00    +0.000 A 
ENDROOT
BRANCH   1   8
ATOM      7  C   UNL     1      12.532   1.911   7.156  0.00  0.00    +0.000 C 
ATOM      8  O   UNL     1      11.522   1.821   8.154  0.00  0.00    +0.000 OA
ENDBRANCH   1   8
BRANCH   6   9
ATOM      9  O   UNL     1       9.481   1.454   9.834  0.00  0.00    +0.000 OA
ATOM     10  H   UNL     1       8.735   0.846   9.998  0.00  0.00    +0.000 HD
ENDBRANCH   6   9
TORSDOF 2
ENDMDL
MODEL 9
REMARK VINA RESULT:    -3.766      3.221      4.376
REMARK INTER + INTRA:          -4.135
REMARK INTER:                  -4.082
REMARK INTRA:                  -0.053
REMARK UNBOUND:                -0.038
REMARK  Name = 
REMARK  3 active torsions:
REMARK  status: ('A' for Active; 'I' for Inactive)
REMARK    1  A    between atoms: C_1  and  O_2
REMARK    2  A    between atoms: O_2  and  C_3
REMARK    3  A    between atoms: C_8  and  O_9
REMARK                            x       y       z     vdW  Elec       q    Type
REMARK                         _______ _______ _______ _____ _____    ______ ____
ROOT
ATOM      1  C   UNL     1      10.652  -0.225  10.933  0.00  0.00    +0.000 A 
ATOM      2  C   UNL     1      11.882  -0.856  10.750  0.00  0.00    +0.000 A 
ATOM      3  C   UNL     1      12.751  -0.416   9.744  0.00  0.00    +0.000 A 
ATOM      4  C   UNL     1      12.396   0.653   8.919  0.00  0.00    +0.000 A 
ATOM      5  C   UNL     1      11.170   1.289   9.096  0.00  0.00    +0.000 A 
ATOM      6  C   UNL     1      10.313   0.846  10.096  0.00  0.00    +0.000 A 
ENDROOT
BRANCH   1   8
ATOM      7  C   UNL     1       9.056  -1.804  11.712  0.00  0.00    +0.000 C 
ATOM      8  O   UNL     1       9.706  -0.548  11.872  0.00  0.00    +0.000 OA
ENDBRANCH   1   8
BRANCH   6   9
ATOM      9  O   UNL     1       9.113   1.487  10.251  0.00  0.00    +0.000 OA
ATOM     10  H   UNL     1       8.480   0.778  10.474  0.00  0.00    +0.000 HD
ENDBRANCH   6   9
TORSDOF 2
ENDMDL
