MODEL 1
REMARK VINA RESULT:    -5.695      0.000      0.000
REMARK INTER + INTRA:          -8.317
REMARK INTER:                  -7.692
REMARK INTRA:                  -0.625
REMARK UNBOUND:                -0.625
REMARK  Name = 
REMARK  10 active torsions:
REMARK  status: ('A' for Active; 'I' for Inactive)
REMARK    1  A    between atoms: C_1  and  C_2
REMARK    2  A    between atoms: C_5  and  N_8
REMARK    3  A    between atoms: N_8  and  C_9
REMARK    4  A    between atoms: N_8  and  C_13
REMARK    5  A    between atoms: C_9  and  C_10
REMARK    6  A    between atoms: C_10  and  C_11
REMARK    7  A    between atoms: C_10  and  O_12
REMARK    8  A    between atoms: C_13  and  C_14
REMARK    9  A    between atoms: C_14  and  C_15
REMARK   10  A    between atoms: C_14  and  O_16
REMARK                            x       y       z     vdW  Elec       q    Type
REMARK                         _______ _______ _______ _____ _____    ______ ____
ROOT
ATOM      1  N   UNL     1      10.639   0.398  11.602  0.00  0.00    +0.000 N 
ENDROOT
BRANCH   1   6
ATOM      2  C   UNL     1      13.982   0.022   6.910  0.00  0.00    +0.000 C 
ATOM      3  C   UNL     1      13.133   0.133   8.139  0.00  0.00    +0.000 A 
ATOM      4  C   UNL     1      13.195  -0.830   9.141  0.00  0.00    +0.000 A 
ATOM      5  C   UNL     1      12.374  -0.737  10.276  0.00  0.00    +0.000 A 
ATOM      6  C   UNL     1      11.441   0.300  10.458  0.00  0.00    +0.000 A 
ATOM      7  C   UNL     1      11.407   1.257   9.427  0.00  0.00    +0.000 A 
ATOM      8  C   UNL     1      12.223   1.177   8.287  0.00  0.00    +0.000 A 
ENDBRANCH   1   6
BRANCH   1   9
ATOM      9  C   UNL     1      10.524   1.690  12.321  0.00  0.00    +0.000 C 
BRANCH   9  10
ATOM     10  C   UNL     1       9.063   2.192  12.421  0.00  0.00    +0.000 C 
ATOM     11  C   UNL     1       9.017   3.707  12.579  0.00  0.00    +0.000 C 
BRANCH  10  12
ATOM     12  O   UNL     1       8.317   1.845  11.246  0.00  0.00    +0.000 OA
ATOM     13  H   UNL     1       7.918   2.657  10.892  0.00  0.00    +0.000 HD
ENDBRANCH  10  12
ENDBRANCH   9  10
ENDBRANCH   1   9
BRANCH   1  14
ATOM     14  C   UNL     1      10.312  -0.801  12.416  0.00  0.00    +0.000 C 
BRANCH  14  15
ATOM     15  C   UNL     1       9.058  -1.540  11.889  0.00  0.00    +0.000 C 
ATOM     16  C   UNL     1       9.285  -3.033  11.681  0.00  0.00    +0.000 C 
BRANCH  15  17
ATOM     17  O   UNL     1       7.944  -1.380  12.766  0.00  0.00    +0.000 OA
ATOM     18  H   UNL     1       7.817  -2.260  13.176  0.00  0.00    +0.000 HD
ENDBRANCH  15  17
ENDBRANCH  14  15
ENDBRANCH   1  14
TORSDOF 7
ENDMDL
MODEL 2
REMARK VINA RESULT:    -5.640      0.688      3.112
REMARK INTER + INTRA:          -8.243
REMARK INTER:                  -7.527
REMARK INTRA:                  -0.716
REMARK UNBOUND:                -0.625
REMARK  Name = 
REMARK  10 active torsions:
REMARK  status: ('A' for Active; 'I' for Inactive)
REMARK    1  A    between atoms: C_1  and  C_2
REMARK    2  A    between atoms: C_5  and  N_8
REMARK    3  A    between atoms: N_8  and  C_9
REMARK    4  A    between atoms: N_8  and  C_13
REMARK    5  A    between atoms: C_9  and  C_10
REMARK    6  A    between atoms: C_10  and  C_11
REMARK    7  A    between atoms: C_10  and  O_12
REMARK    8  A    between atoms: C_13  and  C_14
REMARK    9  A    between atoms: C_14  and  C_15
REMARK   10  A    between atoms: C_14  and  O_16
REMARK                            x       y       z     vdW  Elec       q    Type
REMARK                         _______ _______ _______ _____ _____    ______ ____
ROOT
ATOM      1  N   UNL     1      10.434   0.725  11.211  0.00  0.00    +0.000 N 
ENDROOT
BRANCH   1   6
ATOM      2  C   UNL     1      14.122  -0.049   6.838  0.00  0.00    +0.000 C 
ATOM      3  C   UNL     1      13.182   0.167   7.984  0.00  0.00    +0.000 A 
ATOM      4  C   UNL     1      13.188  -0.684   9.084  0.00  0.00    +0.000 A 
ATOM      5  C   UNL     1      12.283  -0.495  10.141  0.00  0.00    +0.000 A 
ATOM      6  C   UNL     1      11.320   0.530  10.144  0.00  0.00    +0.000 A 
ATOM      7  C   UNL     1      11.344   1.373   9.018  0.00  0.00    +0.000 A 
ATOM      8  C   UNL     1      12.245   1.196   7.954  0.00  0.00    +0.000 A 
ENDBRANCH   1   6
BRANCH   1   9
ATOM      9  C   UNL     1      10.207  -0.359  12.197  0.00  0.00    +0.000 C 
BRANCH   9  10
ATOM     10  C   UNL     1       8.981  -1.239  11.849  0.00  0.00    +0.000 C 
ATOM     11  C   UNL     1       9.382  -2.704  11.718  0.00  0.00    +0.000 C 
BRANCH  10  12
ATOM     12  O   UNL     1       7.974  -1.144  12.866  0.00  0.00    +0.000 OA
ATOM     13  H   UNL     1       8.027  -1.941  13.418  0.00  0.00    +0.000 HD
ENDBRANCH  10  12
ENDBRANCH   9  10
ENDBRANCH   1   9
BRANCH   1  14
ATOM     14  C   UNL     1       9.348   1.736  11.134  0.00  0.00    +0.000 C 
BRANCH  14  15
ATOM     15  C   UNL     1       9.005   2.332  12.520  0.00  0.00    +0.000 C 
ATOM     16  C   UNL     1       9.110   3.852  12.562  0.00  0.00    +0.000 C 
BRANCH  15  17
ATOM     17  O   UNL     1       7.690   1.969  12.939  0.00  0.00    +0.000 OA
ATOM     18  H   UNL     1       7.226   1.709  12.118  0.00  0.00    +0.000 HD
ENDBRANCH  15  17
ENDBRANCH  14  15
ENDBRANCH   1  14
TORSDOF 7
ENDMDL
MODEL 3
REMARK VINA RESULT:    -5.137      2.544      5.381
REMARK INTER + INTRA:          -7.564
REMARK INTER:                  -6.844
REMARK INTRA:                  -0.721
REMARK UNBOUND:                -0.625
REMARK  Name = 
REMARK  10 active torsions:
REMARK  status: ('A' for Active; 'I' for Inactive)
REMARK    1  A    between atoms: C_1  and  C_2
REMARK    2  A    between atoms: C_5  and  N_8
REMARK    3  A    between atoms: N_8  and  C_9
REMARK    4  A    between atoms: N_8  and  C_13
REMARK    5  A    between atoms: C_9  and  C_10
REMARK    6  A    between atoms: C_10  and  C_11
REMARK    7  A    between atoms: C_10  and  O_12
REMARK    8  A    between atoms: C_13  and  C_14
REMARK    9  A    between atoms: C_14  and  C_15
REMARK   10  A    between atoms: C_14  and  O_16
REMARK                            x       y       z     vdW  Elec       q    Type
REMARK                         _______ _______ _______ _____ _____    ______ ____
ROOT
ATOM      1  N   UNL     1      12.154   0.168  11.624  0.00  0.00    +0.000 N 
ENDROOT
BRANCH   1   6
ATOM      2  C   UNL     1       7.813   3.860  12.550  0.00  0.00    +0.000 C 
ATOM      3  C   UNL     1       8.953   2.921  12.299  0.00  0.00    +0.000 A 
ATOM      4  C   UNL     1       9.015   2.168  11.131  0.00  0.00    +0.000 A 
ATOM      5  C   UNL     1      10.070   1.267  10.915  0.00  0.00    +0.000 A 
ATOM      6  C   UNL     1      11.094   1.055  11.855  0.00  0.00    +0.000 A 
ATOM      7  C   UNL     1      11.001   1.833  13.023  0.00  0.00    +0.000 A 
ATOM      8  C   UNL     1       9.952   2.740  13.251  0.00  0.00    +0.000 A 
ENDBRANCH   1   6
BRANCH   1   9
ATOM      9  C   UNL     1      12.645  -0.703  12.718  0.00  0.00    +0.000 C 
BRANCH   9  10
ATOM     10  C   UNL     1      12.246  -2.187  12.529  0.00  0.00    +0.000 C 
ATOM     11  C   UNL     1      10.888  -2.304  11.847  0.00  0.00    +0.000 C 
BRANCH  10  12
ATOM     12  O   UNL     1      13.209  -2.881  11.723  0.00  0.00    +0.000 OA
ATOM     13  H   UNL     1      13.810  -2.222  11.338  0.00  0.00    +0.000 HD
ENDBRANCH  10  12
ENDBRANCH   9  10
ENDBRANCH   1   9
BRANCH   1  14
ATOM     14  C   UNL     1      13.128   0.403  10.528  0.00  0.00    +0.000 C 
BRANCH  14  15
ATOM     15  C   UNL     1      12.781  -0.406   9.255  0.00  0.00    +0.000 C 
ATOM     16  C   UNL     1      12.914   0.406   7.972  0.00  0.00    +0.000 C 
BRANCH  15  17
ATOM     17  O   UNL     1      13.599  -1.568   9.129  0.00  0.00    +0.000 OA
ATOM     18  H   UNL     1      14.404  -1.261   8.665  0.00  0.00    +0.000 HD
ENDBRANCH  15  17
ENDBRANCH  14  15
ENDBRANCH   1  14
TORSDOF 7
ENDMDL
MODEL 4
REMARK VINA RESULT:    -5.083      2.597      5.160
REMARK INTER + INTRA:          -7.491
REMARK INTER:                  -6.864
REMARK INTRA:                  -0.627
REMARK UNBOUND:                -0.625
REMARK  Name = 
REMARK  10 active torsions:
REMARK  status: ('A' for Active; 'I' for Inactive)
REMARK    1  A    between atoms: C_1  and  C_2
REMARK    2  A    between atoms: C_5  and  N_8
REMARK    3  A    between atoms: N_8  and  C_9
REMARK    4  A    between atoms: N_8  and  C_13
REMARK    5  A    between atoms: C_9  and  C_10
REMARK    6  A    between atoms: C_10  and  C_11
REMARK    7  A    between atoms: C_10  and  O_12
REMARK    8  A    between atoms: C_13  and  C_14
REMARK    9  A    between atoms: C_14  and  C_15
REMARK   10  A    between atoms: C_14  and  O_16
REMARK                            x       y       z     vdW  Elec       q    Type
REMARK                         _______ _______ _______ _____ _____    ______ ____
ROOT
ATOM      1  N   UNL     1      11.585   0.100  11.642  0.00  0.00    +0.000 N 
ENDROOT
BRANCH   1   6
ATOM      2  C   UNL     1       7.561   4.093  12.732  0.00  0.00    +0.000 C 
ATOM      3  C   UNL     1       8.616   3.072  12.433  0.00  0.00    +0.000 A 
ATOM      4  C   UNL     1       8.428   2.121  11.436  0.00  0.00    +0.000 A 
ATOM      5  C   UNL     1       9.408   1.149  11.180  0.00  0.00    +0.000 A 
ATOM      6  C   UNL     1      10.604   1.061  11.916  0.00  0.00    +0.000 A 
ATOM      7  C   UNL     1      10.761   2.039  12.915  0.00  0.00    +0.000 A 
ATOM      8  C   UNL     1       9.790   3.019  13.179  0.00  0.00    +0.000 A 
ENDBRANCH   1   6
BRANCH   1   9
ATOM      9  C   UNL     1      11.789  -0.381  10.255  0.00  0.00    +0.000 C 
BRANCH   9  10
ATOM     10  C   UNL     1      12.544   0.641   9.370  0.00  0.00    +0.000 C 
ATOM     11  C   UNL     1      11.650   1.155   8.247  0.00  0.00    +0.000 C 
BRANCH  10  12
ATOM     12  O   UNL     1      12.979   1.768  10.142  0.00  0.00    +0.000 OA
ATOM     13  H   UNL     1      13.776   2.131   9.722  0.00  0.00    +0.000 HD
ENDBRANCH  10  12
ENDBRANCH   9  10
ENDBRANCH   1   9
BRANCH   1  14
ATOM     14  C   UNL     1      12.077  -0.820  12.700  0.00  0.00    +0.000 C 
BRANCH  14  15
ATOM     15  C   UNL     1      13.549  -0.535  13.085  0.00  0.00    +0.000 C 
ATOM     16  C   UNL     1      14.519  -1.587  12.562  0.00  0.00    +0.000 C 
BRANCH  15  17
ATOM     17  O   UNL     1      13.981   0.739  12.609  0.00  0.00    +0.000 OA
ATOM     18  H   UNL     1      13.797   1.359  13.344  0.00  0.00    +0.000 HD
ENDBRANCH  15  17
ENDBRANCH  14  15
ENDBRANCH   1  14
TORSDOF 7
ENDMDL
MODEL 5
REMARK VINA RESULT:    -5.038      2.166      4.428
REMARK INTER + INTRA:          -7.430
REMARK INTER:                  -6.960
REMARK INTRA:                  -0.471
REMARK UNBOUND:                -0.625
REMARK  Name = 
REMARK  10 active torsions:
REMARK  status: ('A' for Active; 'I' for Inactive)
REMARK    1  A    between atoms: C_1  and  C_2
REMARK    2  A    between atoms: C_5  and  N_8
REMARK    3  A    between atoms: N_8  and  C_9
REMARK    4  A    between atoms: N_8  and  C_13
REMARK    5  A    between atoms: C_9  and  C_10
REMARK    6  A    between atoms: C_10  and  C_11
REMARK    7  A    between atoms: C_10  and  O_12
REMARK    8  A    between atoms: C_13  and  C_14
REMARK    9  A    between atoms: C_14  and  C_15
REMARK   10  A    between atoms: C_14  and  O_16
REMARK                            x       y       z     vdW  Elec       q    Type
REMARK                         _______ _______ _______ _____ _____    ______ ____
ROOT
ATOM      1  N   UNL     1      10.977   1.170  10.196  0.00  0.00    +0.000 N 
ENDROOT
BRANCH   1   6
ATOM      2  C   UNL     1      14.815  -2.133  12.969  0.00  0.00    +0.000 C 
ATOM      3  C   UNL     1      13.837  -1.270  12.233  0.00  0.00    +0.000 A 
ATOM      4  C   UNL     1      13.670   0.069  12.570  0.00  0.00    +0.000 A 
ATOM      5  C   UNL     1      12.729   0.865  11.896  0.00  0.00    +0.000 A 
ATOM      6  C   UNL     1      11.899   0.365  10.877  0.00  0.00    +0.000 A 
ATOM      7  C   UNL     1      12.096  -0.992  10.561  0.00  0.00    +0.000 A 
ATOM      8  C   UNL     1      13.035  -1.799  11.225  0.00  0.00    +0.000 A 
ENDBRANCH   1   6
BRANCH   1   9
ATOM      9  C   UNL     1      10.819   1.041   8.728  0.00  0.00    +0.000 C 
BRANCH   9  10
ATOM     10  C   UNL     1      11.916   1.796   7.938  0.00  0.00    +0.000 C 
ATOM     11  C   UNL     1      13.084   0.874   7.609  0.00  0.00    +0.000 C 
BRANCH  10  12
ATOM     12  O   UNL     1      11.398   2.314   6.705  0.00  0.00    +0.000 OA
ATOM     13  H   UNL     1      10.591   1.818   6.485  0.00  0.00    +0.000 HD
ENDBRANCH  10  12
ENDBRANCH   9  10
ENDBRANCH   1   9
BRANCH   1  14
ATOM     14  C   UNL     1      10.524   2.467  10.761  0.00  0.00    +0.000 C 
BRANCH  14  15
ATOM     15  C   UNL     1       9.399   2.288  11.808  0.00  0.00    +0.000 C 
ATOM     16  C   UNL     1       8.999   3.592  12.488  0.00  0.00    +0.000 C 
BRANCH  15  17
ATOM     17  O   UNL     1       8.227   1.714  11.229  0.00  0.00    +0.000 OA
ATOM     18  H   UNL     1       8.418   0.756  11.171  0.00  0.00    +0.000 HD
ENDBRANCH  15  17
ENDBRANCH  14  15
ENDBRANCH   1  14
TORSDOF 7
ENDMDL
MODEL 6
REMARK VINA RESULT:    -5.032      1.647      4.827
REMARK INTER + INTRA:          -7.422
REMARK INTER:                  -7.082
REMARK INTRA:                  -0.341
REMARK UNBOUND:                -0.625
REMARK  Name = 
REMARK  10 active torsions:
REMARK  status: ('A' for Active; 'I' for Inactive)
REMARK    1  A    between atoms: C_1  and  C_2
REMARK    2  A    between atoms: C_5  and  N_8
REMARK    3  A    between atoms: N_8  and  C_9
REMARK    4  A    between atoms: N_8  and  C_13
REMARK    5  A    between atoms: C_9  and  C_10
REMARK    6  A    between atoms: C_10  and  C_11
REMARK    7  A    between atoms: C_10  and  O_12
REMARK    8  A    between atoms: C_13  and  C_14
REMARK    9  A    between atoms: C_14  and  C_15
REMARK   10  A    between atoms: C_14  and  O_16
REMARK                            x       y       z     vdW  Elec       q    Type
REMARK                         _______ _______ _______ _____ _____    ______ ____
ROOT
ATOM      1  N   UNL     1      10.447   0.782  10.898  0.00  0.00    +0.000 N 
ENDROOT
BRANCH   1   6
ATOM      2  C   UNL     1      10.478  -4.651  12.849  0.00  0.00    +0.000 C 
ATOM      3  C   UNL     1      10.465  -3.233  12.366  0.00  0.00    +0.000 A 
ATOM      4  C   UNL     1       9.298  -2.656  11.876  0.00  0.00    +0.000 A 
ATOM      5  C   UNL     1       9.299  -1.336  11.396  0.00  0.00    +0.000 A 
ATOM      6  C   UNL     1      10.458  -0.540  11.359  0.00  0.00    +0.000 A 
ATOM      7  C   UNL     1      11.618  -1.155  11.864  0.00  0.00    +0.000 A 
ATOM      8  C   UNL     1      11.631  -2.474  12.349  0.00  0.00    +0.000 A 
ENDBRANCH   1   6
BRANCH   1   9
ATOM      9  C   UNL     1      10.877   1.090   9.513  0.00  0.00    +0.000 C 
BRANCH   9  10
ATOM     10  C   UNL     1      12.417   1.103   9.351  0.00  0.00    +0.000 C 
ATOM     11  C   UNL     1      12.828   0.548   7.992  0.00  0.00    +0.000 C 
BRANCH  10  12
ATOM     12  O   UNL     1      12.935   2.436   9.462  0.00  0.00    +0.000 OA
ATOM     13  H   UNL     1      12.242   2.997   9.847  0.00  0.00    +0.000 HD
ENDBRANCH  10  12
ENDBRANCH   9  10
ENDBRANCH   1   9
BRANCH   1  14
ATOM     14  C   UNL     1      10.518   1.927  11.842  0.00  0.00    +0.000 C 
BRANCH  14  15
ATOM     15  C   UNL     1       9.124   2.323  12.385  0.00  0.00    +0.000 C 
ATOM     16  C   UNL     1       9.026   3.795  12.767  0.00  0.00    +0.000 C 
BRANCH  15  17
ATOM     17  O   UNL     1       8.091   2.041  11.442  0.00  0.00    +0.000 OA
ATOM     18  H   UNL     1       8.342   2.537  10.637  0.00  0.00    +0.000 HD
ENDBRANCH  15  17
ENDBRANCH  14  15
ENDBRANCH   1  14
TORSDOF 7
ENDMDL
MODEL 7
REMARK VINA RESULT:    -5.015      2.257      4.213
REMARK INTER + INTRA:          -7.399
REMARK INTER:                  -6.813
REMARK INTRA:                  -0.586
REMARK UNBOUND:                -0.625
REMARK  Name = 
REMARK  10 active torsions:
REMARK  status: ('A' for Active; 'I' for Inactive)
REMARK    1  A    between atoms: C_1  and  C_2
REMARK    2  A    between atoms: C_5  and  N_8
REMARK    3  A    between atoms: N_8  and  C_9
REMARK    4  A    between atoms: N_8  and  C_13
REMARK    5  A    between atoms: C_9  and  C_10
REMARK    6  A    between atoms: C_10  and  C_11
REMARK    7  A    between atoms: C_10  and  O_12
REMARK    8  A    between atoms: C_13  and  C_14
REMARK    9  A    between atoms: C_14  and  C_15
REMARK   10  A    between atoms: C_14  and  O_16
REMARK                            x       y       z     vdW  Elec       q    Type
REMARK                         _______ _______ _______ _____ _____    ______ ____
ROOT
ATOM      1  N   UNL     1      11.384   1.344  10.134  0.00  0.00    +0.000 N 
ENDROOT
BRANCH   1   6
ATOM      2  C   UNL     1      14.727  -2.395  12.993  0.00  0.00    +0.000 C 
ATOM      3  C   UNL     1      13.841  -1.430  12.267  0.00  0.00    +0.000 A 
ATOM      4  C   UNL     1      13.091  -1.836  11.168  0.00  0.00    +0.000 A 
ATOM      5  C   UNL     1      12.285  -0.920  10.473  0.00  0.00    +0.000 A 
ATOM      6  C   UNL     1      12.205   0.440  10.820  0.00  0.00    +0.000 A 
ATOM      7  C   UNL     1      12.975   0.815  11.937  0.00  0.00    +0.000 A 
ATOM      8  C   UNL     1      13.783  -0.091  12.643  0.00  0.00    +0.000 A 
ENDBRANCH   1   6
BRANCH   1   9
ATOM      9  C   UNL     1      10.439   2.207  10.884  0.00  0.00    +0.000 C 
BRANCH   9  10
ATOM     10  C   UNL     1       9.334   1.399  11.608  0.00  0.00    +0.000 C 
ATOM     11  C   UNL     1       9.562   1.394  13.115  0.00  0.00    +0.000 C 
BRANCH  10  12
ATOM     12  O   UNL     1       8.039   1.961  11.357  0.00  0.00    +0.000 OA
ATOM     13  H   UNL     1       7.370   1.316  11.643  0.00  0.00    +0.000 HD
ENDBRANCH  10  12
ENDBRANCH   9  10
ENDBRANCH   1   9
BRANCH   1  14
ATOM     14  C   UNL     1      11.041   1.138   8.704  0.00  0.00    +0.000 C 
BRANCH  14  15
ATOM     15  C   UNL     1      12.050   1.828   7.755  0.00  0.00    +0.000 C 
ATOM     16  C   UNL     1      13.193   0.914   7.329  0.00  0.00    +0.000 C 
BRANCH  15  17
ATOM     17  O   UNL     1      11.415   2.320   6.577  0.00  0.00    +0.000 OA
ATOM     18  H   UNL     1      11.757   3.230   6.466  0.00  0.00    +0.000 HD
ENDBRANCH  15  17
ENDBRANCH  14  15
ENDBRANCH   1  14
TORSDOF 7
ENDMDL
MODEL 8
REMARK VINA RESULT:    -4.978      1.811      4.323
REMARK INTER + INTRA:          -7.349
REMARK INTER:                  -6.998
REMARK INTRA:                  -0.350
REMARK UNBOUND:                -0.625
REMARK  Name = 
REMARK  10 active torsions:
REMARK  status: ('A' for Active; 'I' for Inactive)
REMARK    1  A    between atoms: C_1  and  C_2
REMARK    2  A    between atoms: C_5  and  N_8
REMARK    3  A    between atoms: N_8  and  C_9
REMARK    4  A    between atoms: N_8  and  C_13
REMARK    5  A    between atoms: C_9  and  C_10
REMARK    6  A    between atoms: C_10  and  C_11
REMARK    7  A    between atoms: C_10  and  O_12
REMARK    8  A    between atoms: C_13  and  C_14
REMARK    9  A    between atoms: C_14  and  C_15
REMARK   10  A    between atoms: C_14  and  O_16
REMARK                            x       y       z     vdW  Elec       q    Type
REMARK                         _______ _______ _______ _____ _____    ______ ____
ROOT
ATOM      1  N   UNL     1      10.658   0.929  10.293  0.00  0.00    +0.000 N 
ENDROOT
BRANCH   1   6
ATOM      2  C   UNL     1      10.706  -4.200  12.942  0.00  0.00    +0.000 C 
ATOM      3  C   UNL     1      10.698  -2.881  12.233  0.00  0.00    +0.000 A 
ATOM      4  C   UNL     1      11.859  -2.123  12.121  0.00  0.00    +0.000 A 
ATOM      5  C   UNL     1      11.839  -0.873  11.481  0.00  0.00    +0.000 A 
ATOM      6  C   UNL     1      10.666  -0.310  10.946  0.00  0.00    +0.000 A 
ATOM      7  C   UNL     1       9.512  -1.105  11.075  0.00  0.00    +0.000 A 
ATOM      8  C   UNL     1       9.519  -2.357  11.711  0.00  0.00    +0.000 A 
ENDBRANCH   1   6
BRANCH   1   9
ATOM      9  C   UNL     1      10.602   2.184  11.079  0.00  0.00    +0.000 C 
BRANCH   9  10
ATOM     10  C   UNL     1       9.393   2.233  12.046  0.00  0.00    +0.000 C 
ATOM     11  C   UNL     1       9.343   3.563  12.789  0.00  0.00    +0.000 C 
BRANCH  10  12
ATOM     12  O   UNL     1       8.158   2.076  11.334  0.00  0.00    +0.000 OA
ATOM     13  H   UNL     1       7.502   1.705  11.947  0.00  0.00    +0.000 HD
ENDBRANCH  10  12
ENDBRANCH   9  10
ENDBRANCH   1   9
BRANCH   1  14
ATOM     14  C   UNL     1      10.197   1.052   8.886  0.00  0.00    +0.000 C 
BRANCH  14  15
ATOM     15  C   UNL     1      11.330   1.516   7.939  0.00  0.00    +0.000 C 
ATOM     16  C   UNL     1      12.616   0.715   8.105  0.00  0.00    +0.000 C 
BRANCH  15  17
ATOM     17  O   UNL     1      10.936   1.441   6.569  0.00  0.00    +0.000 OA
ATOM     18  H   UNL     1      11.544   0.788   6.167  0.00  0.00    +0.000 HD
ENDBRANCH  15  17
ENDBRANCH  14  15
ENDBRANCH   1  14
TORSDOF 7
ENDMDL
MODEL 9
REMARK VINA RESULT:    -4.933      2.617      5.544
REMARK INTER + INTRA:          -7.288
REMARK INTER:                  -6.764
REMARK INTRA:                  -0.524
REMARK UNBOUND:                -0.625
REMARK  Name = 
REMARK  10 active torsions:
REMARK  status: ('A' for Active; 'I' for Inactive)
REMARK    1  A    between atoms: C_1  and  C_2
REMARK    2  A    between atoms: C_5  and  N_8
REMARK    3  A    between atoms: N_8  and  C_9
REMARK    4  A    between atoms: N_8  and  C_13
REMARK    5  A    between atoms: C_9  and  C_10
REMARK    6  A    between atoms: C_10  and  C_11
REMARK    7  A    between atoms: C_10  and  O_12
REMARK    8  A    between atoms: C_13  and  C_14
REMARK    9  A    between atoms: C_14  and  C_15
REMARK   10  A    between atoms: C_14  and  O_16
REMARK                            x       y       z     vdW  Elec       q    Type
REMARK                         _______ _______ _______ _____ _____    ______ ____
ROOT
ATOM      1  N   UNL     1      11.695  -0.406  10.726  0.00  0.00    +0.000 N 
ENDROOT
BRANCH   1   6
ATOM      2  C   UNL     1       8.200   3.683  12.821  0.00  0.00    +0.000 C 
ATOM      3  C   UNL     1       9.097   2.606  12.294  0.00  0.00    +0.000 A 
ATOM      4  C   UNL     1      10.371   2.415  12.820  0.00  0.00    +0.000 A 
ATOM      5  C   UNL     1      11.219   1.423  12.301  0.00  0.00    +0.000 A 
ATOM      6  C   UNL     1      10.852   0.594  11.226  0.00  0.00    +0.000 A 
ATOM      7  C   UNL     1       9.557   0.813  10.720  0.00  0.00    +0.000 A 
ATOM      8  C   UNL     1       8.698   1.800  11.231  0.00  0.00    +0.000 A 
ENDBRANCH   1   6
BRANCH   1   9
ATOM      9  C   UNL     1      11.839  -1.690  11.455  0.00  0.00    +0.000 C 
BRANCH   9  10
ATOM     10  C   UNL     1      13.298  -1.975  11.886  0.00  0.00    +0.000 C 
ATOM     11  C   UNL     1      13.593  -1.364  13.251  0.00  0.00    +0.000 C 
BRANCH  10  12
ATOM     12  O   UNL     1      13.544  -3.386  11.969  0.00  0.00    +0.000 OA
ATOM     13  H   UNL     1      13.061  -3.819  11.246  0.00  0.00    +0.000 HD
ENDBRANCH  10  12
ENDBRANCH   9  10
ENDBRANCH   1   9
BRANCH   1  14
ATOM     14  C   UNL     1      12.818  -0.079   9.811  0.00  0.00    +0.000 C 
BRANCH  14  15
ATOM     15  C   UNL     1      12.378   0.850   8.654  0.00  0.00    +0.000 C 
ATOM     16  C   UNL     1      12.804   2.299   8.853  0.00  0.00    +0.000 C 
BRANCH  15  17
ATOM     17  O   UNL     1      12.890   0.407   7.398  0.00  0.00    +0.000 OA
ATOM     18  H   UNL     1      13.047   1.226   6.886  0.00  0.00    +0.000 HD
ENDBRANCH  15  17
ENDBRANCH  14  15
ENDBRANCH   1  14
TORSDOF 7
ENDMDL
