MODEL 1
REMARK VINA RESULT:    -4.684      0.000      0.000
REMARK INTER + INTRA:          -5.123
REMARK INTER:                  -5.095
REMARK INTRA:                  -0.028
REMARK UNBOUND:                -0.028
REMARK  Name = 
REMARK  3 active torsions:
REMARK  status: ('A' for Active; 'I' for Inactive)
REMARK    1  A    between atoms: C_1  and  O_2
REMARK    2  A    between atoms: O_2  and  C_3
REMARK    3  A    between atoms: C_8  and  O_9
REMARK                            x       y       z     vdW  Elec       q    Type
REMARK                         _______ _______ _______ _____ _____    ______ ____
ROOT
ATOM      1  C   UNL     1      12.483   1.724   7.835  0.00  0.00    +0.000 A 
ATOM      2  C   UNL     1      12.749   1.857   9.197  0.00  0.00    +0.000 A 
ATOM      3  C   UNL     1      11.717   1.702  10.130  0.00  0.00    +0.000 A 
ATOM      4  C   UNL     1      10.417   1.415   9.707  0.00  0.00    +0.000 A 
ATOM      5  C   UNL     1      10.143   1.281   8.348  0.00  0.00    +0.000 A 
ATOM      6  C   UNL     1      11.174   1.436   7.429  0.00  0.00    +0.000 A 
ENDROOT
BRANCH   1   8
ATOM      7  C   UNL     1      14.242   0.733   6.581  0.00  0.00    +0.000 C 
ATOM      8  O   UNL     1      13.391   1.850   6.815  0.00  0.00    +0.000 OA
ENDBRANCH   1   8
BRANCH   6   9
ATOM      9  O   UNL     1      10.880   1.299   6.099  0.00  0.00    +0.000 OA
ATOM     10  H   UNL     1      11.369   2.022   5.661  0.00  0.00    +0.000 HD
ENDBRANCH   6   9
TORSDOF 2
ENDMDL
MODEL 2
REMARK VINA RESULT:    -4.543      2.400      3.801
REMARK INTER + INTRA:          -4.970
REMARK INTER:                  -4.917
REMARK INTRA:                  -0.052
REMARK UNBOUND:                -0.028
REMARK  Name = 
REMARK  3 active torsions:
REMARK  status: ('A' for Active; 'I' for Inactive)
REMARK    1  A    between atoms: C_1  and  O_2
REMARK    2  A    between atoms: O_2  and  C_3
REMARK    3  A    between atoms: C_8  and  O_9
REMARK                            x       y       z     vdW  Elec       q    Type
REMARK                         _______ _______ _______ _____ _____    ______ ____
ROOT
ATOM      1  C   UNL     1      12.479   0.526   8.996  0.00  0.00    +0.000 A 
ATOM      2  C   UNL     1      12.216   1.709   8.308  0.00  0.00    +0.000 A 
ATOM      3  C   UNL     1      12.822   1.947   7.068  0.00  0.00    +0.000 A 
ATOM      4  C   UNL     1      13.691   1.005   6.512  0.00  0.00    +0.000 A 
ATOM      5  C   UNL     1      13.958  -0.180   7.194  0.00  0.00    +0.000 A 
ATOM      6  C   UNL     1      13.353  -0.406   8.424  0.00  0.00    +0.000 A 
ENDROOT
BRANCH   1   8
ATOM      7  C   UNL     1      12.388   0.922  11.338  0.00  0.00    +0.000 C 
ATOM      8  O   UNL     1      11.960   0.163  10.213  0.00  0.00    +0.000 OA
ENDBRANCH   1   8
BRANCH   6   9
ATOM      9  O   UNL     1      13.632  -1.579   9.075  0.00  0.00    +0.000 OA
ATOM     10  H   UNL     1      12.767  -2.022   9.169  0.00  0.00    +0.000 HD
ENDBRANCH   6   9
TORSDOF 2
ENDMDL
MODEL 3
REMARK VINA RESULT:    -4.355      2.122      2.699
REMARK INTER + INTRA:          -4.765
REMARK INTER:                  -4.725
REMARK INTRA:                  -0.039
REMARK UNBOUND:                -0.028
REMARK  Name = 
REMARK  3 active torsions:
REMARK  status: ('A' for Active; 'I' for Inactive)
REMARK    1  A    between atoms: C_1  and  O_2
REMARK    2  A    between atoms: O_2  and  C_3
REMARK    3  A    between atoms: C_8  and  O_9
REMARK                            x       y       z     vdW  Elec       q    Type
REMARK                         _______ _______ _______ _____ _____    ______ ____
ROOT
ATOM      1  C   UNL     1      12.943   0.344   8.571  0.00  0.00    +0.000 A 
ATOM      2  C   UNL     1      12.293   1.552   8.820  0.00  0.00    +0.000 A 
ATOM      3  C   UNL     1      11.710   1.789  10.071  0.00  0.00    +0.000 A 
ATOM      4  C   UNL     1      11.774   0.821  11.076  0.00  0.00    +0.000 A 
ATOM      5  C   UNL     1      12.422  -0.389  10.835  0.00  0.00    +0.000 A 
ATOM      6  C   UNL     1      12.996  -0.614   9.591  0.00  0.00    +0.000 A 
ENDROOT
BRANCH   1   8
ATOM      7  C   UNL     1      13.971   1.036   6.543  0.00  0.00    +0.000 C 
ATOM      8  O   UNL     1      13.555  -0.022   7.399  0.00  0.00    +0.000 OA
ENDBRANCH   1   8
BRANCH   6   9
ATOM      9  O   UNL     1      13.628  -1.811   9.378  0.00  0.00    +0.000 OA
ATOM     10  H   UNL     1      14.354  -1.828  10.030  0.00  0.00    +0.000 HD
ENDBRANCH   6   9
TORSDOF 2
ENDMDL
MODEL 4
REMARK VINA RESULT:    -4.319     13.274     13.573
REMARK INTER + INTRA:          -4.726
REMARK INTER:                  -4.674
REMARK INTRA:                  -0.052
REMARK UNBOUND:                -0.028
REMARK  Name = 
REMARK  3 active torsions:
REMARK  status: ('A' for Active; 'I' for Inactive)
REMARK    1  A    between atoms: C_1  and  O_2
REMARK    2  A    between atoms: O_2  and  C_3
REMARK    3  A    between atoms: C_8  and  O_9
REMARK                            x       y       z     vdW  Elec       q    Type
REMARK                         _______ _______ _______ _____ _____    ______ ____
ROOT
ATOM      1  C   UNL     1       4.143  -9.168   9.620  0.00  0.00    +0.000 A 
ATOM      2  C   UNL     1       3.142  -8.343  10.131  0.00  0.00    +0.000 A 
ATOM      3  C   UNL     1       3.149  -7.991  11.487  0.00  0.00    +0.000 A 
ATOM      4  C   UNL     1       4.154  -8.462  12.335  0.00  0.00    +0.000 A 
ATOM      5  C   UNL     1       5.157  -9.286  11.831  0.00  0.00    +0.000 A 
ATOM      6  C   UNL     1       5.142  -9.630  10.486  0.00  0.00    +0.000 A 
ENDROOT
BRANCH   1   8
ATOM      7  C   UNL     1       3.212 -10.418   7.826  0.00  0.00    +0.000 C 
ATOM      8  O   UNL     1       4.260  -9.592   8.321  0.00  0.00    +0.000 OA
ENDBRANCH   1   8
BRANCH   6   9
ATOM      9  O   UNL     1       6.139 -10.442  10.014  0.00  0.00    +0.000 OA
ATOM     10  H   UNL     1       5.678 -11.117   9.480  0.00  0.00    +0.000 HD
ENDBRANCH   6   9
TORSDOF 2
ENDMDL
MODEL 5
REMARK VINA RESULT:    -4.303      1.632      3.234
REMARK INTER + INTRA:          -4.709
REMARK INTER:                  -4.671
REMARK INTRA:                  -0.038
REMARK UNBOUND:                -0.028
REMARK  Name = 
REMARK  3 active torsions:
REMARK  status: ('A' for Active; 'I' for Inactive)
REMARK    1  A    between atoms: C_1  and  O_2
REMARK    2  A    between atoms: O_2  and  C_3
REMARK    3  A    between atoms: C_8  and  O_9
REMARK                            x       y       z     vdW  Elec       q    Type
REMARK                         _______ _______ _______ _____ _____    ______ ____
ROOT
ATOM      1  C   UNL     1      11.614   1.008   8.434  0.00  0.00    +0.000 A 
ATOM      2  C   UNL     1      12.363   0.080   9.156  0.00  0.00    +0.000 A 
ATOM      3  C   UNL     1      13.487  -0.518   8.573  0.00  0.00    +0.000 A 
ATOM      4  C   UNL     1      13.864  -0.194   7.268  0.00  0.00    +0.000 A 
ATOM      5  C   UNL     1      13.122   0.733   6.540  0.00  0.00    +0.000 A 
ATOM      6  C   UNL     1      12.008   1.321   7.127  0.00  0.00    +0.000 A 
ENDROOT
BRANCH   1   8
ATOM      7  C   UNL     1       9.842   1.119  10.013  0.00  0.00    +0.000 C 
ATOM      8  O   UNL     1      10.496   1.669   8.876  0.00  0.00    +0.000 OA
ENDBRANCH   1   8
BRANCH   6   9
ATOM      9  O   UNL     1      11.294   2.229   6.391  0.00  0.00    +0.000 OA
ATOM     10  H   UNL     1      10.400   1.843   6.321  0.00  0.00    +0.000 HD
ENDBRANCH   6   9
TORSDOF 2
ENDMDL
MODEL 6
REMARK VINA RESULT:    -4.147      2.369      3.366
REMARK INTER + INTRA:          -4.539
REMARK INTER:                  -4.495
REMARK INTRA:                  -0.044
REMARK UNBOUND:                -0.028
REMARK  Name = 
REMARK  3 active torsions:
REMARK  status: ('A' for Active; 'I' for Inactive)
REMARK    1  A    between atoms: C_1  and  O_2
REMARK    2  A    between atoms: O_2  and  C_3
REMARK    3  A    between atoms: C_8  and  O_9
REMARK                            x       y       z     vdW  Elec       q    Type
REMARK                         _______ _______ _______ _____ _____    ______ ____
ROOT
ATOM      1  C   UNL     1      11.487   1.576  10.077  0.00  0.00    +0.000 A 
ATOM      2  C   UNL     1      12.656   1.865   9.374  0.00  0.00    +0.000 A 
ATOM      3  C   UNL     1      12.645   1.875   7.974  0.00  0.00    +0.000 A 
ATOM      4  C   UNL     1      11.471   1.596   7.273  0.00  0.00    +0.000 A 
ATOM      5  C   UNL     1      10.299   1.306   7.968  0.00  0.00    +0.000 A 
ATOM      6  C   UNL     1      10.319   1.298   9.357  0.00  0.00    +0.000 A 
ENDROOT
BRANCH   1   8
ATOM      7  C   UNL     1      12.427   0.945  12.167  0.00  0.00    +0.000 C 
ATOM      8  O   UNL     1      11.352   1.530  11.442  0.00  0.00    +0.000 OA
ENDBRANCH   1   8
BRANCH   6   9
ATOM      9  O   UNL     1       9.155   1.011  10.018  0.00  0.00    +0.000 OA
ATOM     10  H   UNL     1       9.059   0.042   9.944  0.00  0.00    +0.000 HD
ENDBRANCH   6   9
TORSDOF 2
ENDMDL
MODEL 7
REMARK VINA RESULT:    -4.044      2.413      3.687
REMARK INTER + INTRA:          -4.427
REMARK INTER:                  -4.386
REMARK INTRA:                  -0.041
REMARK UNBOUND:                -0.028
REMARK  Name = 
REMARK  3 active torsions:
REMARK  status: ('A' for Active; 'I' for Inactive)
REMARK    1  A    between atoms: C_1  and  O_2
REMARK    2  A    between atoms: O_2  and  C_3
REMARK    3  A    between atoms: C_8  and  O_9
REMARK                            x       y       z     vdW  Elec       q    Type
REMARK                         _______ _______ _______ _____ _____    ______ ____
ROOT
ATOM      1  C   UNL     1      12.854   0.118   9.145  0.00  0.00    +0.000 A 
ATOM      2  C   UNL     1      13.507  -0.622   8.160  0.00  0.00    +0.000 A 
ATOM      3  C   UNL     1      13.919   0.001   6.975  0.00  0.00    +0.000 A 
ATOM      4  C   UNL     1      13.679   1.361   6.770  0.00  0.00    +0.000 A 
ATOM      5  C   UNL     1      13.028   2.107   7.750  0.00  0.00    +0.000 A 
ATOM      6  C   UNL     1      12.623   1.481   8.922  0.00  0.00    +0.000 A 
ENDROOT
BRANCH   1   8
ATOM      7  C   UNL     1      13.133  -1.428  10.928  0.00  0.00    +0.000 C 
ATOM      8  O   UNL     1      12.397  -0.358  10.348  0.00  0.00    +0.000 OA
ENDBRANCH   1   8
BRANCH   6   9
ATOM      9  O   UNL     1      11.984   2.235   9.870  0.00  0.00    +0.000 OA
ATOM     10  H   UNL     1      11.389   2.820   9.363  0.00  0.00    +0.000 HD
ENDBRANCH   6   9
TORSDOF 2
ENDMDL
MODEL 8
REMARK VINA RESULT:    -3.857      2.349      2.749
REMARK INTER + INTRA:          -4.223
REMARK INTER:                  -4.186
REMARK INTRA:                  -0.037
REMARK UNBOUND:                -0.028
REMARK  Name = 
REMARK  3 active torsions:
REMARK  status: ('A' for Active; 'I' for Inactive)
REMARK    1  A    between atoms: C_1  and  O_2
REMARK    2  A    between atoms: O_2  and  C_3
REMARK    3  A    between atoms: C_8  and  O_9
REMARK                            x       y       z     vdW  Elec       q    Type
REMARK                         _______ _______ _______ _____ _____    ______ ____
ROOT
ATOM      1  C   UNL     1      11.698   0.808   9.116  0.00  0.00    +0.000 A 
ATOM      2  C   UNL     1      12.804  -0.024   9.279  0.00  0.00    +0.000 A 
ATOM      3  C   UNL     1      12.806  -0.996  10.288  0.00  0.00    +0.000 A 
ATOM      4  C   UNL     1      11.706  -1.137  11.136  0.00  0.00    +0.000 A 
ATOM      5  C   UNL     1      10.597  -0.309  10.979  0.00  0.00    +0.000 A 
ATOM      6  C   UNL     1      10.604   0.651   9.976  0.00  0.00    +0.000 A 
ENDROOT
BRANCH   1   8
ATOM      7  C   UNL     1      12.578   1.880   7.187  0.00  0.00    +0.000 C 
ATOM      8  O   UNL     1      11.560   1.798   8.176  0.00  0.00    +0.000 OA
ENDBRANCH   1   8
BRANCH   6   9
ATOM      9  O   UNL     1       9.503   1.454   9.841  0.00  0.00    +0.000 OA
ATOM     10  H   UNL     1       9.850   2.297   9.493  0.00  0.00    +0.000 HD
ENDBRANCH   6   9
TORSDOF 2
ENDMDL
MODEL 9
REMARK VINA RESULT:    -3.840      2.566      4.233
REMARK INTER + INTRA:          -4.205
REMARK INTER:                  -4.165
REMARK INTRA:                  -0.040
REMARK UNBOUND:                -0.028
REMARK  Name = 
REMARK  3 active torsions:
REMARK  status: ('A' for Active; 'I' for Inactive)
REMARK    1  A    between atoms: C_1  and  O_2
REMARK    2  A    between atoms: O_2  and  C_3
REMARK    3  A    between atoms: C_8  and  O_9
REMARK                            x       y       z     vdW  Elec       q    Type
REMARK                         _______ _______ _______ _____ _____    ______ ____
ROOT
ATOM      1  C   UNL     1      10.862   1.248  10.261  0.00  0.00    +0.000 A 
ATOM      2  C   UNL     1      10.029   1.343   9.147  0.00  0.00    +0.000 A 
ATOM      3  C   UNL     1      10.582   1.375   7.861  0.00  0.00    +0.000 A 
ATOM      4  C   UNL     1      11.965   1.313   7.683  0.00  0.00    +0.000 A 
ATOM      5  C   UNL     1      12.804   1.216   8.791  0.00  0.00    +0.000 A 
ATOM      6  C   UNL     1      12.247   1.186  10.063  0.00  0.00    +0.000 A 
ENDROOT
BRANCH   1   8
ATOM      7  C   UNL     1       9.218   1.827  11.875  0.00  0.00    +0.000 C 
ATOM      8  O   UNL     1      10.462   1.207  11.573  0.00  0.00    +0.000 OA
ENDBRANCH   1   8
BRANCH   6   9
ATOM      9  O   UNL     1      13.092   1.091  11.136  0.00  0.00    +0.000 OA
ATOM     10  H   UNL     1      12.866   0.239  11.556  0.00  0.00    +0.000 HD
ENDBRANCH   6   9
TORSDOF 2
ENDMDL
