MODEL 1
REMARK VINA RESULT:    -5.682      0.000      0.000
REMARK INTER + INTRA:          -8.301
REMARK INTER:                  -7.675
REMARK INTRA:                  -0.626
REMARK UNBOUND:                -0.626
REMARK  Name = 
REMARK  10 active torsions:
REMARK  status: ('A' for Active; 'I' for Inactive)
REMARK    1  A    between atoms: C_1  and  C_2
REMARK    2  A    between atoms: C_5  and  N_8
REMARK    3  A    between atoms: N_8  and  C_9
REMARK    4  A    between atoms: N_8  and  C_13
REMARK    5  A    between atoms: C_9  and  C_10
REMARK    6  A    between atoms: C_10  and  C_11
REMARK    7  A    between atoms: C_10  and  O_12
REMARK    8  A    between atoms: C_13  and  C_14
REMARK    9  A    between atoms: C_14  and  C_15
REMARK   10  A    between atoms: C_14  and  O_16
REMARK                            x       y       z     vdW  Elec       q    Type
REMARK                         _______ _______ _______ _____ _____    ______ ____
ROOT
ATOM      1  N   UNL     1      10.624   0.370  11.594  0.00  0.00    +0.000 N 
ENDROOT
BRANCH   1   6
ATOM      2  C   UNL     1      13.938   0.050   6.877  0.00  0.00    +0.000 C 
ATOM      3  C   UNL     1      13.095   0.147   8.112  0.00  0.00    +0.000 A 
ATOM      4  C   UNL     1      13.180  -0.816   9.112  0.00  0.00    +0.000 A 
ATOM      5  C   UNL     1      12.366  -0.736  10.254  0.00  0.00    +0.000 A 
ATOM      6  C   UNL     1      11.418   0.286  10.444  0.00  0.00    +0.000 A 
ATOM      7  C   UNL     1      11.362   1.243   9.414  0.00  0.00    +0.000 A 
ATOM      8  C   UNL     1      12.171   1.176   8.268  0.00  0.00    +0.000 A 
ENDBRANCH   1   6
BRANCH   1   9
ATOM      9  C   UNL     1      10.511   1.654  12.327  0.00  0.00    +0.000 C 
BRANCH   9  10
ATOM     10  C   UNL     1       9.053   2.166  12.420  0.00  0.00    +0.000 C 
ATOM     11  C   UNL     1       9.017   3.682  12.578  0.00  0.00    +0.000 C 
BRANCH  10  12
ATOM     12  O   UNL     1       8.312   1.825  11.241  0.00  0.00    +0.000 OA
ATOM     13  H   UNL     1       8.895   1.314  10.655  0.00  0.00    +0.000 HD
ENDBRANCH  10  12
ENDBRANCH   9  10
ENDBRANCH   1   9
BRANCH   1  14
ATOM     14  C   UNL     1      10.302  -0.838  12.396  0.00  0.00    +0.000 C 
BRANCH  14  15
ATOM     15  C   UNL     1       9.046  -1.572  11.870  0.00  0.00    +0.000 C 
ATOM     16  C   UNL     1       9.269  -3.064  11.653  0.00  0.00    +0.000 C 
BRANCH  15  17
ATOM     17  O   UNL     1       7.935  -1.416  12.752  0.00  0.00    +0.000 OA
ATOM     18  H   UNL     1       7.146  -1.461  12.176  0.00  0.00    +0.000 HD
ENDBRANCH  15  17
ENDBRANCH  14  15
ENDBRANCH   1  14
TORSDOF 7
ENDMDL
MODEL 2
REMARK VINA RESULT:    -5.649      0.694      3.327
REMARK INTER + INTRA:          -8.256
REMARK INTER:                  -7.540
REMARK INTRA:                  -0.716
REMARK UNBOUND:                -0.626
REMARK  Name = 
REMARK  10 active torsions:
REMARK  status: ('A' for Active; 'I' for Inactive)
REMARK    1  A    between atoms: C_1  and  C_2
REMARK    2  A    between atoms: C_5  and  N_8
REMARK    3  A    between atoms: N_8  and  C_9
REMARK    4  A    between atoms: N_8  and  C_13
REMARK    5  A    between atoms: C_9  and  C_10
REMARK    6  A    between atoms: C_10  and  C_11
REMARK    7  A    between atoms: C_10  and  O_12
REMARK    8  A    between atoms: C_13  and  C_14
REMARK    9  A    between atoms: C_14  and  C_15
REMARK   10  A    between atoms: C_14  and  O_16
REMARK                            x       y       z     vdW  Elec       q    Type
REMARK                         _______ _______ _______ _____ _____    ______ ____
ROOT
ATOM      1  N   UNL     1      10.501   0.808  11.245  0.00  0.00    +0.000 N 
ENDROOT
BRANCH   1   6
ATOM      2  C   UNL     1      14.114  -0.049   6.825  0.00  0.00    +0.000 C 
ATOM      3  C   UNL     1      13.160   0.158   7.961  0.00  0.00    +0.000 A 
ATOM      4  C   UNL     1      12.238   1.199   7.940  0.00  0.00    +0.000 A 
ATOM      5  C   UNL     1      11.366   1.406   9.021  0.00  0.00    +0.000 A 
ATOM      6  C   UNL     1      11.386   0.607  10.179  0.00  0.00    +0.000 A 
ATOM      7  C   UNL     1      12.329  -0.437  10.165  0.00  0.00    +0.000 A 
ATOM      8  C   UNL     1      13.205  -0.656   9.089  0.00  0.00    +0.000 A 
ENDBRANCH   1   6
BRANCH   1   9
ATOM      9  C   UNL     1      10.255  -0.280  12.222  0.00  0.00    +0.000 C 
BRANCH   9  10
ATOM     10  C   UNL     1       9.060  -1.183  11.826  0.00  0.00    +0.000 C 
ATOM     11  C   UNL     1       9.494  -2.639  11.707  0.00  0.00    +0.000 C 
BRANCH  10  12
ATOM     12  O   UNL     1       8.013  -1.110  12.804  0.00  0.00    +0.000 OA
ATOM     13  H   UNL     1       8.213  -0.372  13.403  0.00  0.00    +0.000 HD
ENDBRANCH  10  12
ENDBRANCH   9  10
ENDBRANCH   1   9
BRANCH   1  14
ATOM     14  C   UNL     1       9.431   1.836  11.174  0.00  0.00    +0.000 C 
BRANCH  14  15
ATOM     15  C   UNL     1       9.031   2.361  12.574  0.00  0.00    +0.000 C 
ATOM     16  C   UNL     1       9.131   3.877  12.697  0.00  0.00    +0.000 C 
BRANCH  15  17
ATOM     17  O   UNL     1       7.701   1.977  12.921  0.00  0.00    +0.000 OA
ATOM     18  H   UNL     1       7.294   1.688  12.079  0.00  0.00    +0.000 HD
ENDBRANCH  15  17
ENDBRANCH  14  15
ENDBRANCH   1  14
TORSDOF 7
ENDMDL
MODEL 3
REMARK VINA RESULT:    -5.053      2.118      2.576
REMARK INTER + INTRA:          -7.451
REMARK INTER:                  -6.973
REMARK INTRA:                  -0.478
REMARK UNBOUND:                -0.626
REMARK  Name = 
REMARK  10 active torsions:
REMARK  status: ('A' for Active; 'I' for Inactive)
REMARK    1  A    between atoms: C_1  and  C_2
REMARK    2  A    between atoms: C_5  and  N_8
REMARK    3  A    between atoms: N_8  and  C_9
REMARK    4  A    between atoms: N_8  and  C_13
REMARK    5  A    between atoms: C_9  and  C_10
REMARK    6  A    between atoms: C_10  and  C_11
REMARK    7  A    between atoms: C_10  and  O_12
REMARK    8  A    between atoms: C_13  and  C_14
REMARK    9  A    between atoms: C_14  and  C_15
REMARK   10  A    between atoms: C_14  and  O_16
REMARK                            x       y       z     vdW  Elec       q    Type
REMARK                         _______ _______ _______ _____ _____    ______ ____
ROOT
ATOM      1  N   UNL     1      11.221   0.215  11.574  0.00  0.00    +0.000 N 
ENDROOT
BRANCH   1   6
ATOM      2  C   UNL     1      13.815   1.486   6.576  0.00  0.00    +0.000 C 
ATOM      3  C   UNL     1      13.164   1.161   7.885  0.00  0.00    +0.000 A 
ATOM      4  C   UNL     1      13.147  -0.142   8.371  0.00  0.00    +0.000 A 
ATOM      5  C   UNL     1      12.508  -0.446   9.584  0.00  0.00    +0.000 A 
ATOM      6  C   UNL     1      11.839   0.521  10.356  0.00  0.00    +0.000 A 
ATOM      7  C   UNL     1      11.878   1.828   9.836  0.00  0.00    +0.000 A 
ATOM      8  C   UNL     1      12.515   2.146   8.625  0.00  0.00    +0.000 A 
ENDBRANCH   1   6
BRANCH   1   9
ATOM      9  C   UNL     1       9.772  -0.099  11.615  0.00  0.00    +0.000 C 
BRANCH   9  10
ATOM     10  C   UNL     1       8.967   0.894  12.489  0.00  0.00    +0.000 C 
ATOM     11  C   UNL     1       8.707   2.194  11.738  0.00  0.00    +0.000 C 
BRANCH  10  12
ATOM     12  O   UNL     1       7.700   0.337  12.866  0.00  0.00    +0.000 OA
ATOM     13  H   UNL     1       7.622   0.393  13.833  0.00  0.00    +0.000 HD
ENDBRANCH  10  12
ENDBRANCH   9  10
ENDBRANCH   1   9
BRANCH   1  14
ATOM     14  C   UNL     1      11.797   0.671  12.865  0.00  0.00    +0.000 C 
BRANCH  14  15
ATOM     15  C   UNL     1      13.068  -0.123  13.251  0.00  0.00    +0.000 C 
ATOM     16  C   UNL     1      12.930  -1.623  13.021  0.00  0.00    +0.000 C 
BRANCH  15  17
ATOM     17  O   UNL     1      14.213   0.331  12.530  0.00  0.00    +0.000 OA
ATOM     18  H   UNL     1      14.170  -0.132  11.670  0.00  0.00    +0.000 HD
ENDBRANCH  15  17
ENDBRANCH  14  15
ENDBRANCH   1  14
TORSDOF 7
ENDMDL
MODEL 4
REMARK VINA RESULT:    -5.051      2.757      5.198
REMARK INTER + INTRA:          -7.448
REMARK INTER:                  -7.165
REMARK INTRA:                  -0.283
REMARK UNBOUND:                -0.626
REMARK  Name = 
REMARK  10 active torsions:
REMARK  status: ('A' for Active; 'I' for Inactive)
REMARK    1  A    between atoms: C_1  and  C_2
REMARK    2  A    between atoms: C_5  and  N_8
REMARK    3  A    between atoms: N_8  and  C_9
REMARK    4  A    between atoms: N_8  and  C_13
REMARK    5  A    between atoms: C_9  and  C_10
REMARK    6  A    between atoms: C_10  and  C_11
REMARK    7  A    between atoms: C_10  and  O_12
REMARK    8  A    between atoms: C_13  and  C_14
REMARK    9  A    between atoms: C_14  and  C_15
REMARK   10  A    between atoms: C_14  and  O_16
REMARK                            x       y       z     vdW  Elec       q    Type
REMARK                         _______ _______ _______ _____ _____    ______ ____
ROOT
ATOM      1  N   UNL     1      11.781   0.842   9.364  0.00  0.00    +0.000 N 
ENDROOT
BRANCH   1   6
ATOM      2  C   UNL     1       7.892   2.947  13.075  0.00  0.00    +0.000 C 
ATOM      3  C   UNL     1       8.891   2.415  12.094  0.00  0.00    +0.000 A 
ATOM      4  C   UNL     1       8.640   1.248  11.381  0.00  0.00    +0.000 A 
ATOM      5  C   UNL     1       9.593   0.737  10.484  0.00  0.00    +0.000 A 
ATOM      6  C   UNL     1      10.843   1.346  10.274  0.00  0.00    +0.000 A 
ATOM      7  C   UNL     1      11.062   2.525  11.010  0.00  0.00    +0.000 A 
ATOM      8  C   UNL     1      10.117   3.048  11.908  0.00  0.00    +0.000 A 
ENDBRANCH   1   6
BRANCH   1   9
ATOM      9  C   UNL     1      11.537   0.955   7.906  0.00  0.00    +0.000 C 
BRANCH   9  10
ATOM     10  C   UNL     1      12.319   2.123   7.255  0.00  0.00    +0.000 C 
ATOM     11  C   UNL     1      13.642   1.637   6.676  0.00  0.00    +0.000 C 
BRANCH  10  12
ATOM     12  O   UNL     1      11.562   2.721   6.194  0.00  0.00    +0.000 OA
ATOM     13  H   UNL     1      10.627   2.732   6.460  0.00  0.00    +0.000 HD
ENDBRANCH  10  12
ENDBRANCH   9  10
ENDBRANCH   1   9
BRANCH   1  14
ATOM     14  C   UNL     1      12.735  -0.227   9.756  0.00  0.00    +0.000 C 
BRANCH  14  15
ATOM     15  C   UNL     1      12.765  -0.450  11.287  0.00  0.00    +0.000 C 
ATOM     16  C   UNL     1      12.871  -1.920  11.677  0.00  0.00    +0.000 C 
BRANCH  15  17
ATOM     17  O   UNL     1      13.847   0.249  11.901  0.00  0.00    +0.000 OA
ATOM     18  H   UNL     1      13.976   1.048  11.352  0.00  0.00    +0.000 HD
ENDBRANCH  15  17
ENDBRANCH  14  15
ENDBRANCH   1  14
TORSDOF 7
ENDMDL
MODEL 5
REMARK VINA RESULT:    -5.036      1.657      4.823
REMARK INTER + INTRA:          -7.429
REMARK INTER:                  -7.092
REMARK INTRA:                  -0.336
REMARK UNBOUND:                -0.626
REMARK  Name = 
REMARK  10 active torsions:
REMARK  status: ('A' for Active; 'I' for Inactive)
REMARK    1  A    between atoms: C_1  and  C_2
REMARK    2  A    between atoms: C_5  and  N_8
REMARK    3  A    between atoms: N_8  and  C_9
REMARK    4  A    between atoms: N_8  and  C_13
REMARK    5  A    between atoms: C_9  and  C_10
REMARK    6  A    between atoms: C_10  and  C_11
REMARK    7  A    between atoms: C_10  and  O_12
REMARK    8  A    between atoms: C_13  and  C_14
REMARK    9  A    between atoms: C_14  and  C_15
REMARK   10  A    between atoms: C_14  and  O_16
REMARK                            x       y       z     vdW  Elec       q    Type
REMARK                         _______ _______ _______ _____ _____    ______ ____
ROOT
ATOM      1  N   UNL     1      10.451   0.733  10.889  0.00  0.00    +0.000 N 
ENDROOT
BRANCH   1   6
ATOM      2  C   UNL     1      10.572  -4.699  12.841  0.00  0.00    +0.000 C 
ATOM      3  C   UNL     1      10.535  -3.281  12.357  0.00  0.00    +0.000 A 
ATOM      4  C   UNL     1       9.364  -2.730  11.848  0.00  0.00    +0.000 A 
ATOM      5  C   UNL     1       9.343  -1.410  11.368  0.00  0.00    +0.000 A 
ATOM      6  C   UNL     1      10.484  -0.589  11.351  0.00  0.00    +0.000 A 
ATOM      7  C   UNL     1      11.649  -1.178  11.875  0.00  0.00    +0.000 A 
ATOM      8  C   UNL     1      11.684  -2.496  12.360  0.00  0.00    +0.000 A 
ENDBRANCH   1   6
BRANCH   1   9
ATOM      9  C   UNL     1      10.881   1.048   9.506  0.00  0.00    +0.000 C 
BRANCH   9  10
ATOM     10  C   UNL     1      12.422   1.084   9.349  0.00  0.00    +0.000 C 
ATOM     11  C   UNL     1      12.843   0.565   7.979  0.00  0.00    +0.000 C 
BRANCH  10  12
ATOM     12  O   UNL     1      12.923   2.420   9.492  0.00  0.00    +0.000 OA
ATOM     13  H   UNL     1      12.216   2.968   9.873  0.00  0.00    +0.000 HD
ENDBRANCH  10  12
ENDBRANCH   9  10
ENDBRANCH   1   9
BRANCH   1  14
ATOM     14  C   UNL     1      10.498   1.879  11.833  0.00  0.00    +0.000 C 
BRANCH  14  15
ATOM     15  C   UNL     1       9.091   2.270  12.347  0.00  0.00    +0.000 C 
ATOM     16  C   UNL     1       8.978   3.743  12.723  0.00  0.00    +0.000 C 
BRANCH  15  17
ATOM     17  O   UNL     1       8.079   1.981  11.384  0.00  0.00    +0.000 OA
ATOM     18  H   UNL     1       7.340   2.583  11.605  0.00  0.00    +0.000 HD
ENDBRANCH  15  17
ENDBRANCH  14  15
ENDBRANCH   1  14
TORSDOF 7
ENDMDL
MODEL 6
REMARK VINA RESULT:    -4.985      2.312      4.258
REMARK INTER + INTRA:          -7.360
REMARK INTER:                  -6.842
REMARK INTRA:                  -0.518
REMARK UNBOUND:                -0.626
REMARK  Name = 
REMARK  10 active torsions:
REMARK  status: ('A' for Active; 'I' for Inactive)
REMARK    1  A    between atoms: C_1  and  C_2
REMARK    2  A    between atoms: C_5  and  N_8
REMARK    3  A    between atoms: N_8  and  C_9
REMARK    4  A    between atoms: N_8  and  C_13
REMARK    5  A    between atoms: C_9  and  C_10
REMARK    6  A    between atoms: C_10  and  C_11
REMARK    7  A    between atoms: C_10  and  O_12
REMARK    8  A    between atoms: C_13  and  C_14
REMARK    9  A    between atoms: C_14  and  C_15
REMARK   10  A    between atoms: C_14  and  O_16
REMARK                            x       y       z     vdW  Elec       q    Type
REMARK                         _______ _______ _______ _____ _____    ______ ____
ROOT
ATOM      1  N   UNL     1      11.364   1.316  10.126  0.00  0.00    +0.000 N 
ENDROOT
BRANCH   1   6
ATOM      2  C   UNL     1      14.967  -2.178  12.978  0.00  0.00    +0.000 C 
ATOM      3  C   UNL     1      14.013  -1.280  12.252  0.00  0.00    +0.000 A 
ATOM      4  C   UNL     1      13.365  -1.708  11.098  0.00  0.00    +0.000 A 
ATOM      5  C   UNL     1      12.495  -0.851  10.405  0.00  0.00    +0.000 A 
ATOM      6  C   UNL     1      12.248   0.473  10.811  0.00  0.00    +0.000 A 
ATOM      7  C   UNL     1      12.917   0.871  11.982  0.00  0.00    +0.000 A 
ATOM      8  C   UNL     1      13.788   0.024  12.686  0.00  0.00    +0.000 A 
ENDBRANCH   1   6
BRANCH   1   9
ATOM      9  C   UNL     1      10.368   2.118  10.877  0.00  0.00    +0.000 C 
BRANCH   9  10
ATOM     10  C   UNL     1       9.085   1.320  11.213  0.00  0.00    +0.000 C 
ATOM     11  C   UNL     1       9.272   0.494  12.480  0.00  0.00    +0.000 C 
BRANCH  10  12
ATOM     12  O   UNL     1       7.970   2.200  11.417  0.00  0.00    +0.000 OA
ATOM     13  H   UNL     1       7.676   2.105  12.338  0.00  0.00    +0.000 HD
ENDBRANCH  10  12
ENDBRANCH   9  10
ENDBRANCH   1   9
BRANCH   1  14
ATOM     14  C   UNL     1      11.025   1.079   8.699  0.00  0.00    +0.000 C 
BRANCH  14  15
ATOM     15  C   UNL     1      11.932   1.889   7.741  0.00  0.00    +0.000 C 
ATOM     16  C   UNL     1      13.212   1.153   7.361  0.00  0.00    +0.000 C 
BRANCH  15  17
ATOM     17  O   UNL     1      11.250   2.238   6.538  0.00  0.00    +0.000 OA
ATOM     18  H   UNL     1      10.813   3.091   6.734  0.00  0.00    +0.000 HD
ENDBRANCH  15  17
ENDBRANCH  14  15
ENDBRANCH   1  14
TORSDOF 7
ENDMDL
MODEL 7
REMARK VINA RESULT:    -4.966      2.272      4.464
REMARK INTER + INTRA:          -7.334
REMARK INTER:                  -6.538
REMARK INTRA:                  -0.796
REMARK UNBOUND:                -0.626
REMARK  Name = 
REMARK  10 active torsions:
REMARK  status: ('A' for Active; 'I' for Inactive)
REMARK    1  A    between atoms: C_1  and  C_2
REMARK    2  A    between atoms: C_5  and  N_8
REMARK    3  A    between atoms: N_8  and  C_9
REMARK    4  A    between atoms: N_8  and  C_13
REMARK    5  A    between atoms: C_9  and  C_10
REMARK    6  A    between atoms: C_10  and  C_11
REMARK    7  A    between atoms: C_10  and  O_12
REMARK    8  A    between atoms: C_13  and  C_14
REMARK    9  A    between atoms: C_14  and  C_15
REMARK   10  A    between atoms: C_14  and  O_16
REMARK                            x       y       z     vdW  Elec       q    Type
REMARK                         _______ _______ _______ _____ _____    ______ ____
ROOT
ATOM      1  N   UNL     1      12.072   1.536  10.072  0.00  0.00    +0.000 N 
ENDROOT
BRANCH   1   6
ATOM      2  C   UNL     1      14.302  -2.901  13.018  0.00  0.00    +0.000 C 
ATOM      3  C   UNL     1      13.701  -1.754  12.263  0.00  0.00    +0.000 A 
ATOM      4  C   UNL     1      13.193  -1.931  10.981  0.00  0.00    +0.000 A 
ATOM      5  C   UNL     1      12.658  -0.846  10.267  0.00  0.00    +0.000 A 
ATOM      6  C   UNL     1      12.624   0.462  10.782  0.00  0.00    +0.000 A 
ATOM      7  C   UNL     1      13.144   0.603  12.082  0.00  0.00    +0.000 A 
ATOM      8  C   UNL     1      13.680  -0.473  12.808  0.00  0.00    +0.000 A 
ENDBRANCH   1   6
BRANCH   1   9
ATOM      9  C   UNL     1      12.860   2.212   9.014  0.00  0.00    +0.000 C 
BRANCH   9  10
ATOM     10  C   UNL     1      12.448   1.773   7.587  0.00  0.00    +0.000 C 
ATOM     11  C   UNL     1      13.466   0.802   7.000  0.00  0.00    +0.000 C 
BRANCH  10  12
ATOM     12  O   UNL     1      11.169   1.124   7.597  0.00  0.00    +0.000 OA
ATOM     13  H   UNL     1      10.586   1.616   8.198  0.00  0.00    +0.000 HD
ENDBRANCH  10  12
ENDBRANCH   9  10
ENDBRANCH   1   9
BRANCH   1  14
ATOM     14  C   UNL     1      10.968   2.349  10.644  0.00  0.00    +0.000 C 
BRANCH  14  15
ATOM     15  C   UNL     1       9.705   1.502  10.931  0.00  0.00    +0.000 C 
ATOM     16  C   UNL     1       8.644   2.256  11.723  0.00  0.00    +0.000 C 
BRANCH  15  17
ATOM     17  O   UNL     1       9.104   1.028   9.726  0.00  0.00    +0.000 OA
ATOM     18  H   UNL     1       9.800   1.117   9.044  0.00  0.00    +0.000 HD
ENDBRANCH  15  17
ENDBRANCH  14  15
ENDBRANCH   1  14
TORSDOF 7
ENDMDL
MODEL 8
REMARK VINA RESULT:    -4.955      1.795      4.340
REMARK INTER + INTRA:          -7.319
REMARK INTER:                  -6.975
REMARK INTRA:                  -0.344
REMARK UNBOUND:                -0.626
REMARK  Name = 
REMARK  10 active torsions:
REMARK  status: ('A' for Active; 'I' for Inactive)
REMARK    1  A    between atoms: C_1  and  C_2
REMARK    2  A    between atoms: C_5  and  N_8
REMARK    3  A    between atoms: N_8  and  C_9
REMARK    4  A    between atoms: N_8  and  C_13
REMARK    5  A    between atoms: C_9  and  C_10
REMARK    6  A    between atoms: C_10  and  C_11
REMARK    7  A    between atoms: C_10  and  O_12
REMARK    8  A    between atoms: C_13  and  C_14
REMARK    9  A    between atoms: C_14  and  C_15
REMARK   10  A    between atoms: C_14  and  O_16
REMARK                            x       y       z     vdW  Elec       q    Type
REMARK                         _______ _______ _______ _____ _____    ______ ____
ROOT
ATOM      1  N   UNL     1      10.660   0.925  10.329  0.00  0.00    +0.000 N 
ENDROOT
BRANCH   1   6
ATOM      2  C   UNL     1      10.615  -4.231  12.926  0.00  0.00    +0.000 C 
ATOM      3  C   UNL     1      10.631  -2.905  12.230  0.00  0.00    +0.000 A 
ATOM      4  C   UNL     1      11.804  -2.163  12.133  0.00  0.00    +0.000 A 
ATOM      5  C   UNL     1      11.807  -0.907  11.506  0.00  0.00    +0.000 A 
ATOM      6  C   UNL     1      10.646  -0.321  10.970  0.00  0.00    +0.000 A 
ATOM      7  C   UNL     1       9.479  -1.099  11.084  0.00  0.00    +0.000 A 
ATOM      8  C   UNL     1       9.463  -2.358  11.707  0.00  0.00    +0.000 A 
ENDBRANCH   1   6
BRANCH   1   9
ATOM      9  C   UNL     1      10.596   2.173  11.127  0.00  0.00    +0.000 C 
BRANCH   9  10
ATOM     10  C   UNL     1       9.360   2.227  12.058  0.00  0.00    +0.000 C 
ATOM     11  C   UNL     1       9.310   3.545  12.822  0.00  0.00    +0.000 C 
BRANCH  10  12
ATOM     12  O   UNL     1       8.144   2.103  11.306  0.00  0.00    +0.000 OA
ATOM     13  H   UNL     1       8.212   2.679  10.526  0.00  0.00    +0.000 HD
ENDBRANCH  10  12
ENDBRANCH   9  10
ENDBRANCH   1   9
BRANCH   1  14
ATOM     14  C   UNL     1      10.230   1.066   8.914  0.00  0.00    +0.000 C 
BRANCH  14  15
ATOM     15  C   UNL     1      11.383   1.543   7.998  0.00  0.00    +0.000 C 
ATOM     16  C   UNL     1      12.664   0.736   8.176  0.00  0.00    +0.000 C 
BRANCH  15  17
ATOM     17  O   UNL     1      11.017   1.492   6.620  0.00  0.00    +0.000 OA
ATOM     18  H   UNL     1      10.476   0.682   6.532  0.00  0.00    +0.000 HD
ENDBRANCH  15  17
ENDBRANCH  14  15
ENDBRANCH   1  14
TORSDOF 7
ENDMDL
