MODEL 1
REMARK VINA RESULT:    -4.704      0.000      0.000
REMARK INTER + INTRA:          -5.152
REMARK INTER:                  -5.117
REMARK INTRA:                  -0.035
REMARK UNBOUND:                -0.035
REMARK  Name = 
REMARK  3 active torsions:
REMARK  status: ('A' for Active; 'I' for Inactive)
REMARK    1  A    between atoms: C_1  and  O_2
REMARK    2  A    between atoms: O_2  and  C_3
REMARK    3  A    between atoms: C_8  and  O_9
REMARK                            x       y       z     vdW  Elec       q    Type
REMARK                         _______ _______ _______ _____ _____    ______ ____
ROOT
ATOM      1  C   UNL     1      12.429   1.740   7.857  0.00  0.00    +0.000 A 
ATOM      2  C   UNL     1      12.735   1.928   9.204  0.00  0.00    +0.000 A 
ATOM      3  C   UNL     1      11.740   1.768  10.177  0.00  0.00    +0.000 A 
ATOM      4  C   UNL     1      10.439   1.420   9.808  0.00  0.00    +0.000 A 
ATOM      5  C   UNL     1      10.126   1.229   8.464  0.00  0.00    +0.000 A 
ATOM      6  C   UNL     1      11.119   1.391   7.506  0.00  0.00    +0.000 A 
ENDROOT
BRANCH   1   8
ATOM      7  C   UNL     1      14.203   0.786   6.597  0.00  0.00    +0.000 C 
ATOM      8  O   UNL     1      13.298   1.864   6.803  0.00  0.00    +0.000 OA
ENDBRANCH   1   8
BRANCH   6   9
ATOM      9  O   UNL     1      10.787   1.199   6.192  0.00  0.00    +0.000 OA
ATOM     10  H   UNL     1       9.905   0.781   6.217  0.00  0.00    +0.000 HD
ENDBRANCH   6   9
TORSDOF 2
ENDMDL
MODEL 2
REMARK VINA RESULT:    -4.511      2.401      3.805
REMARK INTER + INTRA:          -4.941
REMARK INTER:                  -4.891
REMARK INTRA:                  -0.051
REMARK UNBOUND:                -0.035
REMARK  Name = 
REMARK  3 active torsions:
REMARK  status: ('A' for Active; 'I' for Inactive)
REMARK    1  A    between atoms: C_1  and  O_2
REMARK    2  A    between atoms: O_2  and  C_3
REMARK    3  A    between atoms: C_8  and  O_9
REMARK                            x       y       z     vdW  Elec       q    Type
REMARK                         _______ _______ _______ _____ _____    ______ ____
ROOT
ATOM      1  C   UNL     1      12.442   0.504   9.051  0.00  0.00    +0.000 A 
ATOM      2  C   UNL     1      12.178   1.686   8.360  0.00  0.00    +0.000 A 
ATOM      3  C   UNL     1      12.789   1.925   7.123  0.00  0.00    +0.000 A 
ATOM      4  C   UNL     1      13.665   0.986   6.574  0.00  0.00    +0.000 A 
ATOM      5  C   UNL     1      13.934  -0.197   7.258  0.00  0.00    +0.000 A 
ATOM      6  C   UNL     1      13.323  -0.425   8.485  0.00  0.00    +0.000 A 
ENDROOT
BRANCH   1   8
ATOM      7  C   UNL     1      12.384   0.861  11.400  0.00  0.00    +0.000 C 
ATOM      8  O   UNL     1      11.918   0.140  10.266  0.00  0.00    +0.000 OA
ENDBRANCH   1   8
BRANCH   6   9
ATOM      9  O   UNL     1      13.603  -1.595   9.138  0.00  0.00    +0.000 OA
ATOM     10  H   UNL     1      14.534  -1.786   8.918  0.00  0.00    +0.000 HD
ENDBRANCH   6   9
TORSDOF 2
ENDMDL
MODEL 3
REMARK VINA RESULT:    -4.346      2.041      2.612
REMARK INTER + INTRA:          -4.762
REMARK INTER:                  -4.714
REMARK INTRA:                  -0.048
REMARK UNBOUND:                -0.035
REMARK  Name = 
REMARK  3 active torsions:
REMARK  status: ('A' for Active; 'I' for Inactive)
REMARK    1  A    between atoms: C_1  and  O_2
REMARK    2  A    between atoms: O_2  and  C_3
REMARK    3  A    between atoms: C_8  and  O_9
REMARK                            x       y       z     vdW  Elec       q    Type
REMARK                         _______ _______ _______ _____ _____    ______ ____
ROOT
ATOM      1  C   UNL     1      12.823   0.470   8.485  0.00  0.00    +0.000 A 
ATOM      2  C   UNL     1      12.178   1.654   8.840  0.00  0.00    +0.000 A 
ATOM      3  C   UNL     1      11.781   1.863  10.167  0.00  0.00    +0.000 A 
ATOM      4  C   UNL     1      12.025   0.893  11.140  0.00  0.00    +0.000 A 
ATOM      5  C   UNL     1      12.669  -0.292  10.793  0.00  0.00    +0.000 A 
ATOM      6  C   UNL     1      13.059  -0.492   9.475  0.00  0.00    +0.000 A 
ENDROOT
BRANCH   1   8
ATOM      7  C   UNL     1      14.019   1.117   6.536  0.00  0.00    +0.000 C 
ATOM      8  O   UNL     1      13.265   0.131   7.231  0.00  0.00    +0.000 OA
ENDBRANCH   1   8
BRANCH   6   9
ATOM      9  O   UNL     1      13.690  -1.665   9.158  0.00  0.00    +0.000 OA
ATOM     10  H   UNL     1      14.329  -1.807   9.882  0.00  0.00    +0.000 HD
ENDBRANCH   6   9
TORSDOF 2
ENDMDL
MODEL 4
REMARK VINA RESULT:    -4.297      1.641      3.253
REMARK INTER + INTRA:          -4.708
REMARK INTER:                  -4.669
REMARK INTRA:                  -0.039
REMARK UNBOUND:                -0.035
REMARK  Name = 
REMARK  3 active torsions:
REMARK  status: ('A' for Active; 'I' for Inactive)
REMARK    1  A    between atoms: C_1  and  O_2
REMARK    2  A    between atoms: O_2  and  C_3
REMARK    3  A    between atoms: C_8  and  O_9
REMARK                            x       y       z     vdW  Elec       q    Type
REMARK                         _______ _______ _______ _____ _____    ______ ____
ROOT
ATOM      1  C   UNL     1      11.640   1.007   8.462  0.00  0.00    +0.000 A 
ATOM      2  C   UNL     1      12.395   0.066   9.160  0.00  0.00    +0.000 A 
ATOM      3  C   UNL     1      13.501  -0.537   8.548  0.00  0.00    +0.000 A 
ATOM      4  C   UNL     1      13.856  -0.202   7.240  0.00  0.00    +0.000 A 
ATOM      5  C   UNL     1      13.107   0.738   6.536  0.00  0.00    +0.000 A 
ATOM      6  C   UNL     1      12.011   1.330   7.151  0.00  0.00    +0.000 A 
ENDROOT
BRANCH   1   8
ATOM      7  C   UNL     1       9.880   1.098  10.056  0.00  0.00    +0.000 C 
ATOM      8  O   UNL     1      10.537   1.673   8.933  0.00  0.00    +0.000 OA
ENDBRANCH   1   8
BRANCH   6   9
ATOM      9  O   UNL     1      11.290   2.252   6.439  0.00  0.00    +0.000 OA
ATOM     10  H   UNL     1      10.357   2.021   6.608  0.00  0.00    +0.000 HD
ENDBRANCH   6   9
TORSDOF 2
ENDMDL
MODEL 5
REMARK VINA RESULT:    -4.086      2.757      3.932
REMARK INTER + INTRA:          -4.479
REMARK INTER:                  -4.437
REMARK INTRA:                  -0.042
REMARK UNBOUND:                -0.035
REMARK  Name = 
REMARK  3 active torsions:
REMARK  status: ('A' for Active; 'I' for Inactive)
REMARK    1  A    between atoms: C_1  and  O_2
REMARK    2  A    between atoms: O_2  and  C_3
REMARK    3  A    between atoms: C_8  and  O_9
REMARK                            x       y       z     vdW  Elec       q    Type
REMARK                         _______ _______ _______ _____ _____    ______ ____
ROOT
ATOM      1  C   UNL     1      12.799   0.296  10.232  0.00  0.00    +0.000 A 
ATOM      2  C   UNL     1      12.442   1.620   9.978  0.00  0.00    +0.000 A 
ATOM      3  C   UNL     1      12.524   2.128   8.675  0.00  0.00    +0.000 A 
ATOM      4  C   UNL     1      12.962   1.319   7.626  0.00  0.00    +0.000 A 
ATOM      5  C   UNL     1      13.320  -0.005   7.872  0.00  0.00    +0.000 A 
ATOM      6  C   UNL     1      13.237  -0.500   9.167  0.00  0.00    +0.000 A 
ENDROOT
BRANCH   1   8
ATOM      7  C   UNL     1      11.728   0.055  12.340  0.00  0.00    +0.000 C 
ATOM      8  O   UNL     1      12.770  -0.332  11.452  0.00  0.00    +0.000 OA
ENDBRANCH   1   8
BRANCH   6   9
ATOM      9  O   UNL     1      13.594  -1.804   9.384  0.00  0.00    +0.000 OA
ATOM     10  H   UNL     1      12.755  -2.301   9.348  0.00  0.00    +0.000 HD
ENDBRANCH   6   9
TORSDOF 2
ENDMDL
MODEL 6
REMARK VINA RESULT:    -4.055      2.235      4.036
REMARK INTER + INTRA:          -4.445
REMARK INTER:                  -4.393
REMARK INTRA:                  -0.052
REMARK UNBOUND:                -0.035
REMARK  Name = 
REMARK  3 active torsions:
REMARK  status: ('A' for Active; 'I' for Inactive)
REMARK    1  A    between atoms: C_1  and  O_2
REMARK    2  A    between atoms: O_2  and  C_3
REMARK    3  A    between atoms: C_8  and  O_9
REMARK                            x       y       z     vdW  Elec       q    Type
REMARK                         _______ _______ _______ _____ _____    ______ ____
ROOT
ATOM      1  C   UNL     1      10.881   1.266   9.572  0.00  0.00    +0.000 A 
ATOM      2  C   UNL     1      10.304   1.267   8.303  0.00  0.00    +0.000 A 
ATOM      3  C   UNL     1      11.086   1.557   7.178  0.00  0.00    +0.000 A 
ATOM      4  C   UNL     1      12.444   1.847   7.317  0.00  0.00    +0.000 A 
ATOM      5  C   UNL     1      13.029   1.848   8.581  0.00  0.00    +0.000 A 
ATOM      6  C   UNL     1      12.245   1.560   9.691  0.00  0.00    +0.000 A 
ENDROOT
BRANCH   1   8
ATOM      7  C   UNL     1       9.278   1.960  11.183  0.00  0.00    +0.000 C 
ATOM      8  O   UNL     1      10.239   1.002  10.755  0.00  0.00    +0.000 OA
ENDBRANCH   1   8
BRANCH   6   9
ATOM      9  O   UNL     1      12.842   1.567  10.923  0.00  0.00    +0.000 OA
ATOM     10  H   UNL     1      13.800   1.593  10.735  0.00  0.00    +0.000 HD
ENDBRANCH   6   9
TORSDOF 2
ENDMDL
MODEL 7
REMARK VINA RESULT:    -3.981      2.421      3.439
REMARK INTER + INTRA:          -4.365
REMARK INTER:                  -4.316
REMARK INTRA:                  -0.049
REMARK UNBOUND:                -0.035
REMARK  Name = 
REMARK  3 active torsions:
REMARK  status: ('A' for Active; 'I' for Inactive)
REMARK    1  A    between atoms: C_1  and  O_2
REMARK    2  A    between atoms: O_2  and  C_3
REMARK    3  A    between atoms: C_8  and  O_9
REMARK                            x       y       z     vdW  Elec       q    Type
REMARK                         _______ _______ _______ _____ _____    ______ ____
ROOT
ATOM      1  C   UNL     1      11.616   0.497   9.851  0.00  0.00    +0.000 A 
ATOM      2  C   UNL     1      12.807   0.254   9.169  0.00  0.00    +0.000 A 
ATOM      3  C   UNL     1      12.926   0.610   7.819  0.00  0.00    +0.000 A 
ATOM      4  C   UNL     1      11.857   1.206   7.148  0.00  0.00    +0.000 A 
ATOM      5  C   UNL     1      10.663   1.452   7.823  0.00  0.00    +0.000 A 
ATOM      6  C   UNL     1      10.555   1.096   9.161  0.00  0.00    +0.000 A 
ENDROOT
BRANCH   1   8
ATOM      7  C   UNL     1      12.017   1.008  12.137  0.00  0.00    +0.000 C 
ATOM      8  O   UNL     1      11.360   0.202  11.166  0.00  0.00    +0.000 OA
ENDBRANCH   1   8
BRANCH   6   9
ATOM      9  O   UNL     1       9.372   1.348   9.803  0.00  0.00    +0.000 OA
ATOM     10  H   UNL     1       9.445   0.874  10.654  0.00  0.00    +0.000 HD
ENDBRANCH   6   9
TORSDOF 2
ENDMDL
MODEL 8
REMARK VINA RESULT:    -3.975      2.415      3.668
REMARK INTER + INTRA:          -4.358
REMARK INTER:                  -4.310
REMARK INTRA:                  -0.049
REMARK UNBOUND:                -0.035
REMARK  Name = 
REMARK  3 active torsions:
REMARK  status: ('A' for Active; 'I' for Inactive)
REMARK    1  A    between atoms: C_1  and  O_2
REMARK    2  A    between atoms: O_2  and  C_3
REMARK    3  A    between atoms: C_8  and  O_9
REMARK                            x       y       z     vdW  Elec       q    Type
REMARK                         _______ _______ _______ _____ _____    ______ ____
ROOT
ATOM      1  C   UNL     1      12.809  -0.024   8.948  0.00  0.00    +0.000 A 
ATOM      2  C   UNL     1      13.540  -0.533   7.875  0.00  0.00    +0.000 A 
ATOM      3  C   UNL     1      13.965   0.321   6.850  0.00  0.00    +0.000 A 
ATOM      4  C   UNL     1      13.662   1.683   6.892  0.00  0.00    +0.000 A 
ATOM      5  C   UNL     1      12.933   2.199   7.961  0.00  0.00    +0.000 A 
ATOM      6  C   UNL     1      12.515   1.345   8.973  0.00  0.00    +0.000 A 
ENDROOT
BRANCH   1   8
ATOM      7  C   UNL     1      13.292  -1.186  10.963  0.00  0.00    +0.000 C 
ATOM      8  O   UNL     1      12.330  -0.740  10.015  0.00  0.00    +0.000 OA
ENDBRANCH   1   8
BRANCH   6   9
ATOM      9  O   UNL     1      11.799   1.876  10.013  0.00  0.00    +0.000 OA
ATOM     10  H   UNL     1      11.549   1.107  10.560  0.00  0.00    +0.000 HD
ENDBRANCH   6   9
TORSDOF 2
ENDMDL
MODEL 9
REMARK VINA RESULT:    -3.807      2.333      2.796
REMARK INTER + INTRA:          -4.175
REMARK INTER:                  -4.127
REMARK INTRA:                  -0.048
REMARK UNBOUND:                -0.035
REMARK  Name = 
REMARK  3 active torsions:
REMARK  status: ('A' for Active; 'I' for Inactive)
REMARK    1  A    between atoms: C_1  and  O_2
REMARK    2  A    between atoms: O_2  and  C_3
REMARK    3  A    between atoms: C_8  and  O_9
REMARK                            x       y       z     vdW  Elec       q    Type
REMARK                         _______ _______ _______ _____ _____    ______ ____
ROOT
ATOM      1  C   UNL     1      11.682   0.847   9.162  0.00  0.00    +0.000 A 
ATOM      2  C   UNL     1      12.811   0.047   9.335  0.00  0.00    +0.000 A 
ATOM      3  C   UNL     1      12.834  -0.920  10.349  0.00  0.00    +0.000 A 
ATOM      4  C   UNL     1      11.734  -1.089  11.191  0.00  0.00    +0.000 A 
ATOM      5  C   UNL     1      10.602  -0.294  11.024  0.00  0.00    +0.000 A 
ATOM      6  C   UNL     1      10.588   0.662  10.017  0.00  0.00    +0.000 A 
ENDROOT
BRANCH   1   8
ATOM      7  C   UNL     1      11.335   1.393   6.876  0.00  0.00    +0.000 C 
ATOM      8  O   UNL     1      11.521   1.828   8.217  0.00  0.00    +0.000 OA
ENDBRANCH   1   8
BRANCH   6   9
ATOM      9  O   UNL     1       9.465   1.432   9.872  0.00  0.00    +0.000 OA
ATOM     10  H   UNL     1       9.765   2.220   9.381  0.00  0.00    +0.000 HD
ENDBRANCH   6   9
TORSDOF 2
ENDMDL
