MODEL 1
REMARK VINA RESULT:    -5.683      0.000      0.000
REMARK INTER + INTRA:          -8.300
REMARK INTER:                  -7.676
REMARK INTRA:                  -0.624
REMARK UNBOUND:                -0.624
REMARK  Name = 
REMARK  10 active torsions:
REMARK  status: ('A' for Active; 'I' for Inactive)
REMARK    1  A    between atoms: C_1  and  C_2
REMARK    2  A    between atoms: C_5  and  N_8
REMARK    3  A    between atoms: N_8  and  C_9
REMARK    4  A    between atoms: N_8  and  C_13
REMARK    5  A    between atoms: C_9  and  C_10
REMARK    6  A    between atoms: C_10  and  C_11
REMARK    7  A    between atoms: C_10  and  O_12
REMARK    8  A    between atoms: C_13  and  C_14
REMARK    9  A    between atoms: C_14  and  C_15
REMARK   10  A    between atoms: C_14  and  O_16
REMARK                            x       y       z     vdW  Elec       q    Type
REMARK                         _______ _______ _______ _____ _____    ______ ____
ROOT
ATOM      1  N   UNL     1      10.658   0.392  11.600  0.00  0.00    +0.000 N 
ENDROOT
BRANCH   1   6
ATOM      2  C   UNL     1      14.027  -0.002   6.928  0.00  0.00    +0.000 C 
ATOM      3  C   UNL     1      13.171   0.114   8.152  0.00  0.00    +0.000 A 
ATOM      4  C   UNL     1      13.232  -0.842   9.160  0.00  0.00    +0.000 A 
ATOM      5  C   UNL     1      12.405  -0.744  10.291  0.00  0.00    +0.000 A 
ATOM      6  C   UNL     1      11.466   0.290  10.460  0.00  0.00    +0.000 A 
ATOM      7  C   UNL     1      11.433   1.239   9.422  0.00  0.00    +0.000 A 
ATOM      8  C   UNL     1      12.256   1.155   8.287  0.00  0.00    +0.000 A 
ENDBRANCH   1   6
BRANCH   1   9
ATOM      9  C   UNL     1      10.532   1.688  12.308  0.00  0.00    +0.000 C 
BRANCH   9  10
ATOM     10  C   UNL     1       9.066   2.179  12.404  0.00  0.00    +0.000 C 
ATOM     11  C   UNL     1       9.008   3.693  12.568  0.00  0.00    +0.000 C 
BRANCH  10  12
ATOM     12  O   UNL     1       8.328   1.831  11.225  0.00  0.00    +0.000 OA
ATOM     13  H   UNL     1       8.455   2.538  10.571  0.00  0.00    +0.000 HD
ENDBRANCH  10  12
ENDBRANCH   9  10
ENDBRANCH   1   9
BRANCH   1  14
ATOM     14  C   UNL     1      10.333  -0.803  12.421  0.00  0.00    +0.000 C 
BRANCH  14  15
ATOM     15  C   UNL     1       9.077  -1.544  11.903  0.00  0.00    +0.000 C 
ATOM     16  C   UNL     1       9.302  -3.038  11.705  0.00  0.00    +0.000 C 
BRANCH  15  17
ATOM     17  O   UNL     1       7.966  -1.377  12.783  0.00  0.00    +0.000 OA
ATOM     18  H   UNL     1       8.213  -0.628  13.362  0.00  0.00    +0.000 HD
ENDBRANCH  15  17
ENDBRANCH  14  15
ENDBRANCH   1  14
TORSDOF 7
ENDMDL
MODEL 2
REMARK VINA RESULT:    -5.647      0.698      3.325
REMARK INTER + INTRA:          -8.251
REMARK INTER:                  -7.534
REMARK INTRA:                  -0.718
REMARK UNBOUND:                -0.624
REMARK  Name = 
REMARK  10 active torsions:
REMARK  status: ('A' for Active; 'I' for Inactive)
REMARK    1  A    between atoms: C_1  and  C_2
REMARK    2  A    between atoms: C_5  and  N_8
REMARK    3  A    between atoms: N_8  and  C_9
REMARK    4  A    between atoms: N_8  and  C_13
REMARK    5  A    between atoms: C_9  and  C_10
REMARK    6  A    between atoms: C_10  and  C_11
REMARK    7  A    between atoms: C_10  and  O_12
REMARK    8  A    between atoms: C_13  and  C_14
REMARK    9  A    between atoms: C_14  and  C_15
REMARK   10  A    between atoms: C_14  and  O_16
REMARK                            x       y       z     vdW  Elec       q    Type
REMARK                         _______ _______ _______ _____ _____    ______ ____
ROOT
ATOM      1  N   UNL     1      10.488   0.801  11.223  0.00  0.00    +0.000 N 
ENDROOT
BRANCH   1   6
ATOM      2  C   UNL     1      14.159  -0.051   6.850  0.00  0.00    +0.000 C 
ATOM      3  C   UNL     1      13.190   0.155   7.974  0.00  0.00    +0.000 A 
ATOM      4  C   UNL     1      12.292   1.217   7.956  0.00  0.00    +0.000 A 
ATOM      5  C   UNL     1      11.406   1.422   9.027  0.00  0.00    +0.000 A 
ATOM      6  C   UNL     1      11.387   0.601  10.168  0.00  0.00    +0.000 A 
ATOM      7  C   UNL     1      12.307  -0.463  10.150  0.00  0.00    +0.000 A 
ATOM      8  C   UNL     1      13.197  -0.682   9.086  0.00  0.00    +0.000 A 
ENDBRANCH   1   6
BRANCH   1   9
ATOM      9  C   UNL     1      10.248  -0.280  12.210  0.00  0.00    +0.000 C 
BRANCH   9  10
ATOM     10  C   UNL     1       9.030  -1.165  11.846  0.00  0.00    +0.000 C 
ATOM     11  C   UNL     1       9.439  -2.628  11.719  0.00  0.00    +0.000 C 
BRANCH  10  12
ATOM     12  O   UNL     1       8.009  -1.074  12.849  0.00  0.00    +0.000 OA
ATOM     13  H   UNL     1       7.412  -0.347  12.605  0.00  0.00    +0.000 HD
ENDBRANCH  10  12
ENDBRANCH   9  10
ENDBRANCH   1   9
BRANCH   1  14
ATOM     14  C   UNL     1       9.404   1.812  11.128  0.00  0.00    +0.000 C 
BRANCH  14  15
ATOM     15  C   UNL     1       9.020   2.388  12.512  0.00  0.00    +0.000 C 
ATOM     16  C   UNL     1       9.125   3.907  12.580  0.00  0.00    +0.000 C 
BRANCH  15  17
ATOM     17  O   UNL     1       7.693   2.020  12.887  0.00  0.00    +0.000 OA
ATOM     18  H   UNL     1       7.764   1.092  13.188  0.00  0.00    +0.000 HD
ENDBRANCH  15  17
ENDBRANCH  14  15
ENDBRANCH   1  14
TORSDOF 7
ENDMDL
MODEL 3
REMARK VINA RESULT:    -5.266      2.615      5.062
REMARK INTER + INTRA:          -7.737
REMARK INTER:                  -7.141
REMARK INTRA:                  -0.596
REMARK UNBOUND:                -0.624
REMARK  Name = 
REMARK  10 active torsions:
REMARK  status: ('A' for Active; 'I' for Inactive)
REMARK    1  A    between atoms: C_1  and  C_2
REMARK    2  A    between atoms: C_5  and  N_8
REMARK    3  A    between atoms: N_8  and  C_9
REMARK    4  A    between atoms: N_8  and  C_13
REMARK    5  A    between atoms: C_9  and  C_10
REMARK    6  A    between atoms: C_10  and  C_11
REMARK    7  A    between atoms: C_10  and  O_12
REMARK    8  A    between atoms: C_13  and  C_14
REMARK    9  A    between atoms: C_14  and  C_15
REMARK   10  A    between atoms: C_14  and  O_16
REMARK                            x       y       z     vdW  Elec       q    Type
REMARK                         _______ _______ _______ _____ _____    ______ ____
ROOT
ATOM      1  N   UNL     1      11.762  -0.049  11.445  0.00  0.00    +0.000 N 
ENDROOT
BRANCH   1   6
ATOM      2  C   UNL     1       7.838   3.969  12.780  0.00  0.00    +0.000 C 
ATOM      3  C   UNL     1       8.843   2.910  12.447  0.00  0.00    +0.000 A 
ATOM      4  C   UNL     1       9.960   2.706  13.250  0.00  0.00    +0.000 A 
ATOM      5  C   UNL     1      10.914   1.732  12.916  0.00  0.00    +0.000 A 
ATOM      6  C   UNL     1      10.816   0.934  11.762  0.00  0.00    +0.000 A 
ATOM      7  C   UNL     1       9.674   1.166  10.974  0.00  0.00    +0.000 A 
ATOM      8  C   UNL     1       8.711   2.136  11.297  0.00  0.00    +0.000 A 
ENDBRANCH   1   6
BRANCH   1   9
ATOM      9  C   UNL     1      12.900   0.275  10.552  0.00  0.00    +0.000 C 
BRANCH   9  10
ATOM     10  C   UNL     1      12.775  -0.385   9.157  0.00  0.00    +0.000 C 
ATOM     11  C   UNL     1      13.014   0.633   8.048  0.00  0.00    +0.000 C 
BRANCH  10  12
ATOM     12  O   UNL     1      13.730  -1.444   9.000  0.00  0.00    +0.000 OA
ATOM     13  H   UNL     1      13.565  -1.875   8.145  0.00  0.00    +0.000 HD
ENDBRANCH  10  12
ENDBRANCH   9  10
ENDBRANCH   1   9
BRANCH   1  14
ATOM     14  C   UNL     1      11.428  -1.494  11.532  0.00  0.00    +0.000 C 
BRANCH  14  15
ATOM     15  C   UNL     1      12.432  -2.274  12.414  0.00  0.00    +0.000 C 
ATOM     16  C   UNL     1      11.784  -3.405  13.204  0.00  0.00    +0.000 C 
BRANCH  15  17
ATOM     17  O   UNL     1      13.494  -2.828  11.639  0.00  0.00    +0.000 OA
ATOM     18  H   UNL     1      13.452  -3.792  11.804  0.00  0.00    +0.000 HD
ENDBRANCH  15  17
ENDBRANCH  14  15
ENDBRANCH   1  14
TORSDOF 7
ENDMDL
MODEL 4
REMARK VINA RESULT:    -5.116      2.600      5.173
REMARK INTER + INTRA:          -7.534
REMARK INTER:                  -6.931
REMARK INTRA:                  -0.602
REMARK UNBOUND:                -0.624
REMARK  Name = 
REMARK  10 active torsions:
REMARK  status: ('A' for Active; 'I' for Inactive)
REMARK    1  A    between atoms: C_1  and  C_2
REMARK    2  A    between atoms: C_5  and  N_8
REMARK    3  A    between atoms: N_8  and  C_9
REMARK    4  A    between atoms: N_8  and  C_13
REMARK    5  A    between atoms: C_9  and  C_10
REMARK    6  A    between atoms: C_10  and  C_11
REMARK    7  A    between atoms: C_10  and  O_12
REMARK    8  A    between atoms: C_13  and  C_14
REMARK    9  A    between atoms: C_14  and  C_15
REMARK   10  A    between atoms: C_14  and  O_16
REMARK                            x       y       z     vdW  Elec       q    Type
REMARK                         _______ _______ _______ _____ _____    ______ ____
ROOT
ATOM      1  N   UNL     1      11.673   0.059  11.683  0.00  0.00    +0.000 N 
ENDROOT
BRANCH   1   6
ATOM      2  C   UNL     1       7.656   4.072  12.723  0.00  0.00    +0.000 C 
ATOM      3  C   UNL     1       8.710   3.047  12.438  0.00  0.00    +0.000 A 
ATOM      4  C   UNL     1       8.569   2.150  11.385  0.00  0.00    +0.000 A 
ATOM      5  C   UNL     1       9.546   1.171  11.142  0.00  0.00    +0.000 A 
ATOM      6  C   UNL     1      10.693   1.025  11.943  0.00  0.00    +0.000 A 
ATOM      7  C   UNL     1      10.804   1.950  12.998  0.00  0.00    +0.000 A 
ATOM      8  C   UNL     1       9.835   2.935  13.251  0.00  0.00    +0.000 A 
ENDBRANCH   1   6
BRANCH   1   9
ATOM      9  C   UNL     1      11.897  -0.419  10.297  0.00  0.00    +0.000 C 
BRANCH   9  10
ATOM     10  C   UNL     1      12.692   0.592   9.435  0.00  0.00    +0.000 C 
ATOM     11  C   UNL     1      11.869   1.054   8.239  0.00  0.00    +0.000 C 
BRANCH  10  12
ATOM     12  O   UNL     1      13.053   1.750  10.200  0.00  0.00    +0.000 OA
ATOM     13  H   UNL     1      12.863   1.564  11.135  0.00  0.00    +0.000 HD
ENDBRANCH  10  12
ENDBRANCH   9  10
ENDBRANCH   1   9
BRANCH   1  14
ATOM     14  C   UNL     1      12.142  -0.867  12.746  0.00  0.00    +0.000 C 
BRANCH  14  15
ATOM     15  C   UNL     1      13.611  -0.595  13.151  0.00  0.00    +0.000 C 
ATOM     16  C   UNL     1      14.584  -1.639  12.614  0.00  0.00    +0.000 C 
BRANCH  15  17
ATOM     17  O   UNL     1      14.051   0.688  12.709  0.00  0.00    +0.000 OA
ATOM     18  H   UNL     1      14.855   0.511  12.179  0.00  0.00    +0.000 HD
ENDBRANCH  15  17
ENDBRANCH  14  15
ENDBRANCH   1  14
TORSDOF 7
ENDMDL
MODEL 5
REMARK VINA RESULT:    -5.109      2.399      5.342
REMARK INTER + INTRA:          -7.525
REMARK INTER:                  -6.852
REMARK INTRA:                  -0.673
REMARK UNBOUND:                -0.624
REMARK  Name = 
REMARK  10 active torsions:
REMARK  status: ('A' for Active; 'I' for Inactive)
REMARK    1  A    between atoms: C_1  and  C_2
REMARK    2  A    between atoms: C_5  and  N_8
REMARK    3  A    between atoms: N_8  and  C_9
REMARK    4  A    between atoms: N_8  and  C_13
REMARK    5  A    between atoms: C_9  and  C_10
REMARK    6  A    between atoms: C_10  and  C_11
REMARK    7  A    between atoms: C_10  and  O_12
REMARK    8  A    between atoms: C_13  and  C_14
REMARK    9  A    between atoms: C_14  and  C_15
REMARK   10  A    between atoms: C_14  and  O_16
REMARK                            x       y       z     vdW  Elec       q    Type
REMARK                         _______ _______ _______ _____ _____    ______ ____
ROOT
ATOM      1  N   UNL     1      11.818   0.030  12.014  0.00  0.00    +0.000 N 
ENDROOT
BRANCH   1   6
ATOM      2  C   UNL     1       7.711   4.057  12.509  0.00  0.00    +0.000 C 
ATOM      3  C   UNL     1       8.764   2.997  12.396  0.00  0.00    +0.000 A 
ATOM      4  C   UNL     1       9.862   2.987  13.249  0.00  0.00    +0.000 A 
ATOM      5  C   UNL     1      10.861   2.009  13.119  0.00  0.00    +0.000 A 
ATOM      6  C   UNL     1      10.828   1.014  12.126  0.00  0.00    +0.000 A 
ATOM      7  C   UNL     1       9.702   1.053  11.282  0.00  0.00    +0.000 A 
ATOM      8  C   UNL     1       8.695   2.025  11.403  0.00  0.00    +0.000 A 
ENDBRANCH   1   6
BRANCH   1   9
ATOM      9  C   UNL     1      12.053  -0.918  13.130  0.00  0.00    +0.000 C 
BRANCH   9  10
ATOM     10  C   UNL     1      11.696  -2.379  12.763  0.00  0.00    +0.000 C 
ATOM     11  C   UNL     1      10.456  -2.431  11.879  0.00  0.00    +0.000 C 
BRANCH  10  12
ATOM     12  O   UNL     1      12.773  -3.010  12.056  0.00  0.00    +0.000 OA
ATOM     13  H   UNL     1      13.240  -3.593  12.678  0.00  0.00    +0.000 HD
ENDBRANCH  10  12
ENDBRANCH   9  10
ENDBRANCH   1   9
BRANCH   1  14
ATOM     14  C   UNL     1      12.962   0.192  11.081  0.00  0.00    +0.000 C 
BRANCH  14  15
ATOM     15  C   UNL     1      12.697  -0.474   9.710  0.00  0.00    +0.000 C 
ATOM     16  C   UNL     1      12.828   0.493   8.539  0.00  0.00    +0.000 C 
BRANCH  15  17
ATOM     17  O   UNL     1      13.579  -1.571   9.477  0.00  0.00    +0.000 OA
ATOM     18  H   UNL     1      14.258  -1.224   8.863  0.00  0.00    +0.000 HD
ENDBRANCH  15  17
ENDBRANCH  14  15
ENDBRANCH   1  14
TORSDOF 7
ENDMDL
MODEL 6
REMARK VINA RESULT:    -5.008      2.121      4.450
REMARK INTER + INTRA:          -7.388
REMARK INTER:                  -6.891
REMARK INTRA:                  -0.498
REMARK UNBOUND:                -0.624
REMARK  Name = 
REMARK  10 active torsions:
REMARK  status: ('A' for Active; 'I' for Inactive)
REMARK    1  A    between atoms: C_1  and  C_2
REMARK    2  A    between atoms: C_5  and  N_8
REMARK    3  A    between atoms: N_8  and  C_9
REMARK    4  A    between atoms: N_8  and  C_13
REMARK    5  A    between atoms: C_9  and  C_10
REMARK    6  A    between atoms: C_10  and  C_11
REMARK    7  A    between atoms: C_10  and  O_12
REMARK    8  A    between atoms: C_13  and  C_14
REMARK    9  A    between atoms: C_14  and  C_15
REMARK   10  A    between atoms: C_14  and  O_16
REMARK                            x       y       z     vdW  Elec       q    Type
REMARK                         _______ _______ _______ _____ _____    ______ ____
ROOT
ATOM      1  N   UNL     1      10.767   1.133   9.990  0.00  0.00    +0.000 N 
ENDROOT
BRANCH   1   6
ATOM      2  C   UNL     1      13.813  -2.809  12.908  0.00  0.00    +0.000 C 
ATOM      3  C   UNL     1      13.015  -1.776  12.172  0.00  0.00    +0.000 A 
ATOM      4  C   UNL     1      11.698  -2.023  11.799  0.00  0.00    +0.000 A 
ATOM      5  C   UNL     1      10.965  -1.063  11.083  0.00  0.00    +0.000 A 
ATOM      6  C   UNL     1      11.510   0.172  10.687  0.00  0.00    +0.000 A 
ATOM      7  C   UNL     1      12.843   0.388  11.083  0.00  0.00    +0.000 A 
ATOM      8  C   UNL     1      13.587  -0.563  11.801  0.00  0.00    +0.000 A 
ENDBRANCH   1   6
BRANCH   1   9
ATOM      9  C   UNL     1      10.695   1.088   8.510  0.00  0.00    +0.000 C 
BRANCH   9  10
ATOM     10  C   UNL     1      11.910   1.765   7.829  0.00  0.00    +0.000 C 
ATOM     11  C   UNL     1      12.967   0.735   7.449  0.00  0.00    +0.000 C 
BRANCH  10  12
ATOM     12  O   UNL     1      11.513   2.455   6.636  0.00  0.00    +0.000 OA
ATOM     13  H   UNL     1      11.575   1.832   5.893  0.00  0.00    +0.000 HD
ENDBRANCH  10  12
ENDBRANCH   9  10
ENDBRANCH   1   9
BRANCH   1  14
ATOM     14  C   UNL     1      10.472   2.460  10.589  0.00  0.00    +0.000 C 
BRANCH  14  15
ATOM     15  C   UNL     1       9.481   2.359  11.773  0.00  0.00    +0.000 C 
ATOM     16  C   UNL     1       9.277   3.683  12.499  0.00  0.00    +0.000 C 
BRANCH  15  17
ATOM     17  O   UNL     1       8.202   1.885  11.352  0.00  0.00    +0.000 OA
ATOM     18  H   UNL     1       8.283   0.910  11.348  0.00  0.00    +0.000 HD
ENDBRANCH  15  17
ENDBRANCH  14  15
ENDBRANCH   1  14
TORSDOF 7
ENDMDL
MODEL 7
REMARK VINA RESULT:    -4.993      1.614      4.633
REMARK INTER + INTRA:          -7.367
REMARK INTER:                  -6.681
REMARK INTRA:                  -0.686
REMARK UNBOUND:                -0.624
REMARK  Name = 
REMARK  10 active torsions:
REMARK  status: ('A' for Active; 'I' for Inactive)
REMARK    1  A    between atoms: C_1  and  C_2
REMARK    2  A    between atoms: C_5  and  N_8
REMARK    3  A    between atoms: N_8  and  C_9
REMARK    4  A    between atoms: N_8  and  C_13
REMARK    5  A    between atoms: C_9  and  C_10
REMARK    6  A    between atoms: C_10  and  C_11
REMARK    7  A    between atoms: C_10  and  O_12
REMARK    8  A    between atoms: C_13  and  C_14
REMARK    9  A    between atoms: C_14  and  C_15
REMARK   10  A    between atoms: C_14  and  O_16
REMARK                            x       y       z     vdW  Elec       q    Type
REMARK                         _______ _______ _______ _____ _____    ______ ____
ROOT
ATOM      1  N   UNL     1      10.826   0.508  10.889  0.00  0.00    +0.000 N 
ENDROOT
BRANCH   1   6
ATOM      2  C   UNL     1      10.212  -4.818  13.029  0.00  0.00    +0.000 C 
ATOM      3  C   UNL     1      10.377  -3.446  12.452  0.00  0.00    +0.000 A 
ATOM      4  C   UNL     1      11.595  -2.779  12.533  0.00  0.00    +0.000 A 
ATOM      5  C   UNL     1      11.736  -1.481  12.016  0.00  0.00    +0.000 A 
ATOM      6  C   UNL     1      10.673  -0.779  11.419  0.00  0.00    +0.000 A 
ATOM      7  C   UNL     1       9.457  -1.485  11.353  0.00  0.00    +0.000 A 
ATOM      8  C   UNL     1       9.303  -2.784  11.863  0.00  0.00    +0.000 A 
ENDBRANCH   1   6
BRANCH   1   9
ATOM      9  C   UNL     1      11.581   0.708   9.628  0.00  0.00    +0.000 C 
BRANCH   9  10
ATOM     10  C   UNL     1      10.786   1.518   8.575  0.00  0.00    +0.000 C 
ATOM     11  C   UNL     1      11.378   1.331   7.183  0.00  0.00    +0.000 C 
BRANCH  10  12
ATOM     12  O   UNL     1       9.414   1.102   8.533  0.00  0.00    +0.000 OA
ATOM     13  H   UNL     1       9.074   1.273   7.639  0.00  0.00    +0.000 HD
ENDBRANCH  10  12
ENDBRANCH   9  10
ENDBRANCH   1   9
BRANCH   1  14
ATOM     14  C   UNL     1      10.722   1.713  11.752  0.00  0.00    +0.000 C 
BRANCH  14  15
ATOM     15  C   UNL     1       9.258   2.023  12.147  0.00  0.00    +0.000 C 
ATOM     16  C   UNL     1       9.059   3.453  12.635  0.00  0.00    +0.000 C 
BRANCH  15  17
ATOM     17  O   UNL     1       8.359   1.797  11.063  0.00  0.00    +0.000 OA
ATOM     18  H   UNL     1       8.399   2.616  10.527  0.00  0.00    +0.000 HD
ENDBRANCH  15  17
ENDBRANCH  14  15
ENDBRANCH   1  14
TORSDOF 7
ENDMDL
MODEL 8
REMARK VINA RESULT:    -4.973      1.796      4.334
REMARK INTER + INTRA:          -7.341
REMARK INTER:                  -6.974
REMARK INTRA:                  -0.366
REMARK UNBOUND:                -0.624
REMARK  Name = 
REMARK  10 active torsions:
REMARK  status: ('A' for Active; 'I' for Inactive)
REMARK    1  A    between atoms: C_1  and  C_2
REMARK    2  A    between atoms: C_5  and  N_8
REMARK    3  A    between atoms: N_8  and  C_9
REMARK    4  A    between atoms: N_8  and  C_13
REMARK    5  A    between atoms: C_9  and  C_10
REMARK    6  A    between atoms: C_10  and  C_11
REMARK    7  A    between atoms: C_10  and  O_12
REMARK    8  A    between atoms: C_13  and  C_14
REMARK    9  A    between atoms: C_14  and  C_15
REMARK   10  A    between atoms: C_14  and  O_16
REMARK                            x       y       z     vdW  Elec       q    Type
REMARK                         _______ _______ _______ _____ _____    ______ ____
ROOT
ATOM      1  N   UNL     1      10.610   0.967  10.292  0.00  0.00    +0.000 N 
ENDROOT
BRANCH   1   6
ATOM      2  C   UNL     1      10.608  -4.153  12.961  0.00  0.00    +0.000 C 
ATOM      3  C   UNL     1      10.612  -2.836  12.246  0.00  0.00    +0.000 A 
ATOM      4  C   UNL     1      11.785  -2.100  12.111  0.00  0.00    +0.000 A 
ATOM      5  C   UNL     1      11.778  -0.853  11.467  0.00  0.00    +0.000 A 
ATOM      6  C   UNL     1      10.607  -0.269  10.950  0.00  0.00    +0.000 A 
ATOM      7  C   UNL     1       9.440  -1.042  11.103  0.00  0.00    +0.000 A 
ATOM      8  C   UNL     1       9.434  -2.292  11.743  0.00  0.00    +0.000 A 
ENDBRANCH   1   6
BRANCH   1   9
ATOM      9  C   UNL     1      10.552   2.225  11.073  0.00  0.00    +0.000 C 
BRANCH   9  10
ATOM     10  C   UNL     1       9.362   2.263  12.063  0.00  0.00    +0.000 C 
ATOM     11  C   UNL     1       9.362   3.558  12.867  0.00  0.00    +0.000 C 
BRANCH  10  12
ATOM     12  O   UNL     1       8.111   2.173  11.367  0.00  0.00    +0.000 OA
ATOM     13  H   UNL     1       8.105   1.341  10.865  0.00  0.00    +0.000 HD
ENDBRANCH  10  12
ENDBRANCH   9  10
ENDBRANCH   1   9
BRANCH   1  14
ATOM     14  C   UNL     1      10.163   1.087   8.880  0.00  0.00    +0.000 C 
BRANCH  14  15
ATOM     15  C   UNL     1      11.309   1.534   7.941  0.00  0.00    +0.000 C 
ATOM     16  C   UNL     1      12.584   0.718   8.121  0.00  0.00    +0.000 C 
BRANCH  15  17
ATOM     17  O   UNL     1      10.926   1.458   6.569  0.00  0.00    +0.000 OA
ATOM     18  H   UNL     1      11.451   2.152   6.121  0.00  0.00    +0.000 HD
ENDBRANCH  15  17
ENDBRANCH  14  15
ENDBRANCH   1  14
TORSDOF 7
ENDMDL
MODEL 9
REMARK VINA RESULT:    -4.972      2.293      3.050
REMARK INTER + INTRA:          -7.339
REMARK INTER:                  -6.858
REMARK INTRA:                  -0.481
REMARK UNBOUND:                -0.624
REMARK  Name = 
REMARK  10 active torsions:
REMARK  status: ('A' for Active; 'I' for Inactive)
REMARK    1  A    between atoms: C_1  and  C_2
REMARK    2  A    between atoms: C_5  and  N_8
REMARK    3  A    between atoms: N_8  and  C_9
REMARK    4  A    between atoms: N_8  and  C_13
REMARK    5  A    between atoms: C_9  and  C_10
REMARK    6  A    between atoms: C_10  and  C_11
REMARK    7  A    between atoms: C_10  and  O_12
REMARK    8  A    between atoms: C_13  and  C_14
REMARK    9  A    between atoms: C_14  and  C_15
REMARK   10  A    between atoms: C_14  and  O_16
REMARK                            x       y       z     vdW  Elec       q    Type
REMARK                         _______ _______ _______ _____ _____    ______ ____
ROOT
ATOM      1  N   UNL     1      12.013   0.086  11.823  0.00  0.00    +0.000 N 
ENDROOT
BRANCH   1   6
ATOM      2  C   UNL     1      13.546   1.620   6.472  0.00  0.00    +0.000 C 
ATOM      3  C   UNL     1      13.124   1.219   7.853  0.00  0.00    +0.000 A 
ATOM      4  C   UNL     1      12.735   2.174   8.786  0.00  0.00    +0.000 A 
ATOM      5  C   UNL     1      12.370   1.795  10.088  0.00  0.00    +0.000 A 
ATOM      6  C   UNL     1      12.397   0.459  10.528  0.00  0.00    +0.000 A 
ATOM      7  C   UNL     1      12.794  -0.479   9.558  0.00  0.00    +0.000 A 
ATOM      8  C   UNL     1      13.159  -0.114   8.251  0.00  0.00    +0.000 A 
ENDBRANCH   1   6
BRANCH   1   9
ATOM      9  C   UNL     1      10.654   0.412  12.318  0.00  0.00    +0.000 C 
BRANCH   9  10
ATOM     10  C   UNL     1       9.540   0.024  11.314  0.00  0.00    +0.000 C 
ATOM     11  C   UNL     1       9.047  -1.395  11.570  0.00  0.00    +0.000 C 
BRANCH  10  12
ATOM     12  O   UNL     1       8.418   0.911  11.422  0.00  0.00    +0.000 OA
ATOM     13  H   UNL     1       7.789   0.525  12.054  0.00  0.00    +0.000 HD
ENDBRANCH  10  12
ENDBRANCH   9  10
ENDBRANCH   1   9
BRANCH   1  14
ATOM     14  C   UNL     1      13.023  -0.156  12.885  0.00  0.00    +0.000 C 
BRANCH  14  15
ATOM     15  C   UNL     1      13.458  -1.640  12.950  0.00  0.00    +0.000 C 
ATOM     16  C   UNL     1      12.351  -2.607  12.548  0.00  0.00    +0.000 C 
BRANCH  15  17
ATOM     17  O   UNL     1      14.590  -1.894  12.120  0.00  0.00    +0.000 OA
ATOM     18  H   UNL     1      14.267  -2.511  11.433  0.00  0.00    +0.000 HD
ENDBRANCH  15  17
ENDBRANCH  14  15
ENDBRANCH   1  14
TORSDOF 7
ENDMDL
